 written on 22Apr2022 at 01:59:40 
          11
         579
    1    1    1    1    1    1    1    1    1    1    1    1    1    1    1
    1    1    1    2    1    1    1    1    1    1    1    1    1    1    1
    2    1    1    1    1    1    1    1    1    1    1    1    1    1    1
    1    1    1    1    1    1    1    1    1    1    1    1    1    1    1
    1    1    1    1    1    1    1    1    1    1    1    1    1    1    1
    1    1    1    1    1    1    1    1    1    1    1    1    1    1    1
    1    1    1    1    1    1    1    1    1    1    1    1    1    1    1
    1    1    1    1    1    1    1    1    1    1    1    1    1    1    1
    1    1    1    1    1    1    1    1    1    1    1    1    1    1    1
    1    1    1    1    1    1    1    1    1    1    1    1    1    1    1
    1    1    1    1    1    1    1    1    1    1    1    1    1    1    1
    1    1    1    1    1    1    1    1    1    1    1    1    1    1    1
    1    1    1    1    1    1    1    1    1    1    1    1    1    1    1
    1    1    1    1    1    1    1    1    1    1    1    1    1    1    1
    1    1    1    1    1    1    1    1    1    1    1    1    1    1    1
    1    1    1    1    1    1    1    1    1    1    1    1    1    1    1
    1    1    1    1    1    1    1    1    1    1    1    1    1    1    1
    1    1    1    1    1    1    1    1    1    1    1    1    1    1    1
    1    1    1    1    1    1    1    2    1    1    1    1    1    1    1
    1    1    1    1    1    1    1    1    1    1    1    1    1    1    1
    1    2    1    1    1    1    1    1    1    1    1    1    1    1    1
    1    1    1    1    1    1    1    1    1    1    1    1    1    1    1
    1    1    1    1    1    1    1    1    1    1    1    1    1    1    1
    1    1    1    1    1    1    1    1    1    1    1    1    1    1    1
    1    1    1    1    1    1    1    1    1    1    1    1    1    1    1
    1    1    1    1    1    1    1    1    1    1    1    1    1    1    1
    1    1    1    1    1    1    1    1    1    1    1    1    1    1    1
    1    1    1    1    1    1    1    1    1    1    1    1    1    1    1
    1    1    1    1    1    1    1    1    1    1    1    1    1    1    1
    1    1    1    1    1    1    1    1    1    1    1    1    1    1    1
    1    1    1    1    1    1    1    1    1    1    1    1    1    1    1
    1    1    1    1    1    1    1    1    1    1    1    1    1    1    1
    1    1    1    1    1    1    1    1    1    1    1    1    1    1    1
    1    1    1    1    1    1    1    1    1    1    1    1    1    1    1
    1    1    1    1    1    1    1    1    1    1    1    1    1    1    1
    1    1    1    1    1    1    1    1    1    1    1    1    1    1    1
    1    1    1    1    1    1    1    1    2    1    1    1    1    1    1
    1    1    1    1    1    2    1    1    1    1    1    1    1    1    1
    1    1    1    1    1    1    1    1    1
  -15   -8    0    1    1    0.000117   -0.000150
  -15   -8    0    2    1   -0.000054    0.000026
  -15   -8    0    3    1   -0.000105    0.000106
  -15   -8    0    4    1   -0.000183    0.000037
  -15   -8    0    5    1    0.000007    0.000167
  -15   -8    0    6    1    0.000246    0.000138
  -15   -8    0    7    1   -0.000068   -0.000263
  -15   -8    0    8    1   -0.000029   -0.000099
  -15   -8    0    9    1   -0.000130    0.000026
  -15   -8    0   10    1    0.000077    0.000121
  -15   -8    0   11    1   -0.000042    0.000077
  -15   -8    0    1    2    0.000123    0.000119
  -15   -8    0    2    2    0.000051    0.000271
  -15   -8    0    3    2   -0.000048   -0.000055
  -15   -8    0    4    2    0.000073   -0.000085
  -15   -8    0    5    2   -0.000115   -0.000143
  -15   -8    0    6    2    0.000097   -0.000070
  -15   -8    0    7    2   -0.000001    0.000002
  -15   -8    0    8    2   -0.000030   -0.000005
  -15   -8    0    9    2    0.000027    0.000114
  -15   -8    0   10    2   -0.000009    0.000035
  -15   -8    0   11    2   -0.000059    0.000083
  -15   -8    0    1    3    0.000114    0.000004
  -15   -8    0    2    3   -0.000059    0.000119
  -15   -8    0    3    3   -0.000136    0.000020
  -15   -8    0    4    3    0.000036   -0.000082
  -15   -8    0    5    3    0.000232    0.000050
  -15   -8    0    6    3   -0.000094   -0.000033
  -15   -8    0    7    3   -0.000207   -0.000105
  -15   -8    0    8    3    0.000030    0.000066
  -15   -8    0    9    3   -0.000079    0.000059
  -15   -8    0   10    3    0.000073    0.000014
  -15   -8    0   11    3   -0.000220   -0.000025
  -15   -8    0    1    4    0.000183   -0.000181
  -15   -8    0    2    4   -0.000092   -0.000104
  -15   -8    0    3    4    0.000051   -0.000178
  -15   -8    0    4    4   -0.000073   -0.000142
  -15   -8    0    5    4   -0.000121   -0.000138
  -15   -8    0    6    4    0.000145   -0.000085
  -15   -8    0    7    4   -0.000035    0.000098
  -15   -8    0    8    4   -0.000114   -0.000012
  -15   -8    0    9    4   -0.000051    0.000145
  -15   -8    0   10    4    0.000197   -0.000044
  -15   -8    0   11    4    0.000020    0.000073
  -15   -8    0    1    5    0.000103    0.000203
  -15   -8    0    2    5    0.000097   -0.000035
  -15   -8    0    3    5   -0.000015    0.000118
  -15   -8    0    4    5   -0.000052   -0.000091
  -15   -8    0    5    5    0.000091    0.000115
  -15   -8    0    6    5   -0.000010    0.000012
  -15   -8    0    7    5    0.000059    0.000044
  -15   -8    0    8    5    0.000041    0.000032
  -15   -8    0    9    5   -0.000114    0.000052
  -15   -8    0   10    5    0.000016   -0.000054
  -15   -8    0   11    5   -0.000016    0.000014
  -15   -8    0    1    6   -0.000003    0.000128
  -15   -8    0    2    6    0.000012    0.000200
  -15   -8    0    3    6    0.000002   -0.000053
  -15   -8    0    4    6   -0.000111    0.000117
  -15   -8    0    5    6   -0.000039    0.000003
  -15   -8    0    6    6   -0.000002    0.000003
  -15   -8    0    7    6   -0.000005   -0.000022
  -15   -8    0    8    6    0.000097   -0.000041
  -15   -8    0    9    6   -0.000028    0.000040
  -15   -8    0   10    6    0.000017   -0.000000
  -15   -8    0   11    6    0.000013   -0.000025
  -15   -8    0    1    7   -0.000139   -0.000019
  -15   -8    0    2    7    0.000164   -0.000005
  -15   -8    0    3    7    0.000150   -0.000223
  -15   -8    0    4    7    0.000122   -0.000113
  -15   -8    0    5    7    0.000005    0.000150
  -15   -8    0    6    7    0.000001   -0.000032
  -15   -8    0    7    7   -0.000001    0.000029
  -15   -8    0    8    7   -0.000127    0.000009
  -15   -8    0    9    7   -0.000056    0.000126
  -15   -8    0   10    7   -0.000039    0.000011
  -15   -8    0   11    7   -0.000024   -0.000002
  -15   -8    0    1    8   -0.000043   -0.000028
  -15   -8    0    2    8    0.000331    0.000049
  -15   -8    0    3    8    0.000095   -0.000068
  -15   -8    0    4    8    0.000407   -0.000096
  -15   -8    0    5    8   -0.000109   -0.000087
  -15   -8    0    6    8   -0.000033    0.000014
  -15   -8    0    7    8    0.000003   -0.000072
  -15   -8    0    8    8   -0.000031   -0.000046
  -15   -8    0    9    8    0.000100    0.000020
  -15   -8    0   10    8   -0.000117   -0.000060
  -15   -8    0   11    8    0.000171   -0.000100
  -15   -8    0    1    9    0.000119    0.000010
  -15   -8    0    2    9    0.000208    0.000212
  -15   -8    0    3    9   -0.000047    0.000231
  -15   -8    0    4    9   -0.000042    0.000108
  -15   -8    0    5    9   -0.000052   -0.000074
  -15   -8    0    6    9   -0.000040    0.000045
  -15   -8    0    7    9    0.000022   -0.000008
  -15   -8    0    8    9    0.000106    0.000016
  -15   -8    0    9    9   -0.000048   -0.000117
  -15   -8    0   10    9   -0.000064   -0.000143
  -15   -8    0   11    9    0.000013    0.000050
  -15   -8    0    1   10    0.000068    0.000190
  -15   -8    0    2   10   -0.000035   -0.000157
  -15   -8    0    3   10    0.000091    0.000005
  -15   -8    0    4   10   -0.000194    0.000053
  -15   -8    0    5   10   -0.000150   -0.000119
  -15   -8    0    6   10   -0.000020   -0.000003
  -15   -8    0    7   10   -0.000010   -0.000032
  -15   -8    0    8   10   -0.000003   -0.000057
  -15   -8    0    9   10   -0.000172   -0.000068
  -15   -8    0   10   10    0.000042   -0.000007
  -15   -8    0   11   10   -0.000018    0.000011
  -15   -8    0    1   11   -0.000000    0.000093
  -15   -8    0    2   11   -0.000096   -0.000128
  -15   -8    0    3   11    0.000269    0.000020
  -15   -8    0    4   11    0.000091    0.000061
  -15   -8    0    5   11   -0.000056   -0.000016
  -15   -8    0    6   11   -0.000034    0.000043
  -15   -8    0    7   11    0.000027    0.000007
  -15   -8    0    8   11   -0.000102    0.000134
  -15   -8    0    9   11    0.000063    0.000163
  -15   -8    0   10   11    0.000025    0.000019
  -15   -8    0   11   11   -0.000008    0.000023
  -15   -7    0    1    1    0.000101   -0.000139
  -15   -7    0    2    1   -0.000022   -0.000098
  -15   -7    0    3    1   -0.000031    0.000086
  -15   -7    0    4    1    0.000142   -0.000143
  -15   -7    0    5    1   -0.000057   -0.000072
  -15   -7    0    6    1   -0.000070   -0.000074
  -15   -7    0    7    1    0.000016    0.000228
  -15   -7    0    8    1   -0.000030    0.000073
  -15   -7    0    9    1   -0.000139   -0.000002
  -15   -7    0   10    1   -0.000096    0.000005
  -15   -7    0   11    1   -0.000056    0.000112
  -15   -7    0    1    2   -0.000018   -0.000001
  -15   -7    0    2    2   -0.000215    0.000082
  -15   -7    0    3    2   -0.000228    0.000140
  -15   -7    0    4    2    0.000139    0.000042
  -15   -7    0    5    2    0.000059    0.000080
  -15   -7    0    6    2   -0.000192    0.000158
  -15   -7    0    7    2   -0.000074   -0.000108
  -15   -7    0    8    2   -0.000197   -0.000128
  -15   -7    0    9    2   -0.000291   -0.000246
  -15   -7    0   10    2    0.000177   -0.000150
  -15   -7    0   11    2    0.000143   -0.000029
  -15   -7    0    1    3    0.000090    0.000011
  -15   -7    0    2    3    0.000085   -0.000080
  -15   -7    0    3    3    0.000014    0.000107
  -15   -7    0    4    3    0.000052   -0.000009
  -15   -7    0    5    3   -0.000226    0.000090
  -15   -7    0    6    3    0.000053   -0.000183
  -15   -7    0    7    3    0.000107   -0.000246
  -15   -7    0    8    3    0.000011   -0.000184
  -15   -7    0    9    3   -0.000037    0.000294
  -15   -7    0   10    3    0.000028   -0.000000
  -15   -7    0   11    3   -0.000100    0.000072
  -15   -7    0    1    4   -0.000005    0.000217
  -15   -7    0    2    4    0.000058   -0.000089
  -15   -7    0    3    4    0.000102    0.000001
  -15   -7    0    4    4    0.000143   -0.000081
  -15   -7    0    5    4   -0.000063    0.000036
  -15   -7    0    6    4    0.000067    0.000072
  -15   -7    0    7    4    0.000036   -0.000098
  -15   -7    0    8    4   -0.000115   -0.000255
  -15   -7    0    9    4    0.000148    0.000089
  -15   -7    0   10    4    0.000135    0.000074
  -15   -7    0   11    4   -0.000090    0.000022
  -15   -7    0    1    5   -0.000158   -0.000091
  -15   -7    0    2    5    0.000167   -0.000075
  -15   -7    0    3    5   -0.000237   -0.000093
  -15   -7    0    4    5    0.000198    0.000162
  -15   -7    0    5    5   -0.000071   -0.000109
  -15   -7    0    6    5   -0.000131    0.000119
  -15   -7    0    7    5    0.000056   -0.000040
  -15   -7    0    8    5    0.000049    0.000135
  -15   -7    0    9    5    0.000073    0.000107
  -15   -7    0   10    5    0.000109    0.000021
  -15   -7    0   11    5   -0.000033    0.000070
  -15   -7    0    1    6   -0.000360   -0.000025
  -15   -7    0    2    6    0.000020   -0.000040
  -15   -7    0    3    6    0.000187    0.000219
  -15   -7    0    4    6   -0.000141   -0.000132
  -15   -7    0    5    6   -0.000020   -0.000053
  -15   -7    0    6    6    0.000009   -0.000017
  -15   -7    0    7    6    0.000009    0.000006
  -15   -7    0    8    6   -0.000002    0.000066
  -15   -7    0    9    6    0.000022    0.000030
  -15   -7    0   10    6    0.000012   -0.000017
  -15   -7    0   11    6   -0.000045    0.000018
  -15   -7    0    1    7    0.000143   -0.000237
  -15   -7    0    2    7    0.000020   -0.000054
  -15   -7    0    3    7    0.000169    0.000042
  -15   -7    0    4    7    0.000239    0.000014
  -15   -7    0    5    7   -0.000028    0.000014
  -15   -7    0    6    7   -0.000009    0.000006
  -15   -7    0    7    7   -0.000038    0.000012
  -15   -7    0    8    7    0.000056    0.000070
  -15   -7    0    9    7    0.000045   -0.000013
  -15   -7    0   10    7    0.000035   -0.000009
  -15   -7    0   11    7   -0.000006   -0.000055
  -15   -7    0    1    8    0.000042   -0.000071
  -15   -7    0    2    8   -0.000156    0.000073
  -15   -7    0    3    8   -0.000052    0.000082
  -15   -7    0    4    8   -0.000026   -0.000061
  -15   -7    0    5    8   -0.000002   -0.000022
  -15   -7    0    6    8   -0.000003   -0.000043
  -15   -7    0    7    8    0.000055    0.000014
  -15   -7    0    8    8   -0.000104    0.000069
  -15   -7    0    9    8   -0.000099   -0.000044
  -15   -7    0   10    8    0.000035   -0.000182
  -15   -7    0   11    8    0.000022    0.000084
  -15   -7    0    1    9    0.000008   -0.000040
  -15   -7    0    2    9    0.000059   -0.000210
  -15   -7    0    3    9    0.000103    0.000042
  -15   -7    0    4    9   -0.000063    0.000050
  -15   -7    0    5    9   -0.000070   -0.000007
  -15   -7    0    6    9   -0.000030   -0.000016
  -15   -7    0    7    9   -0.000118    0.000027
  -15   -7    0    8    9   -0.000038    0.000000
  -15   -7    0    9    9    0.000186    0.000010
  -15   -7    0   10    9   -0.000057    0.000224
  -15   -7    0   11    9   -0.000153   -0.000193
  -15   -7    0    1   10   -0.000012    0.000066
  -15   -7    0    2   10   -0.000058    0.000017
  -15   -7    0    3   10    0.000043   -0.000077
  -15   -7    0    4   10   -0.000081   -0.000005
  -15   -7    0    5   10    0.000189   -0.000026
  -15   -7    0    6   10    0.000027    0.000003
  -15   -7    0    7   10    0.000005    0.000006
  -15   -7    0    8   10   -0.000172    0.000182
  -15   -7    0    9   10    0.000090    0.000197
  -15   -7    0   10   10   -0.000021    0.000045
  -15   -7    0   11   10    0.000027   -0.000018
  -15   -7    0    1   11    0.000127    0.000211
  -15   -7    0    2   11    0.000049    0.000039
  -15   -7    0    3   11    0.000193   -0.000096
  -15   -7    0    4   11   -0.000219   -0.000040
  -15   -7    0    5   11    0.000096   -0.000036
  -15   -7    0    6   11   -0.000038   -0.000022
  -15   -7    0    7   11   -0.000003   -0.000019
  -15   -7    0    8   11    0.000101   -0.000008
  -15   -7    0    9   11    0.000098   -0.000102
  -15   -7    0   10   11   -0.000031   -0.000021
  -15   -7    0   11   11   -0.000003    0.000020
  -15   -6    0    1    1   -0.000286    0.000013
  -15   -6    0    2    1    0.000248    0.000014
  -15   -6    0    3    1   -0.000056   -0.000075
  -15   -6    0    4    1   -0.000012   -0.000183
  -15   -6    0    5    1   -0.000081   -0.000001
  -15   -6    0    6    1    0.000030   -0.000116
  -15   -6    0    7    1   -0.000246    0.000053
  -15   -6    0    8    1   -0.000029    0.000242
  -15   -6    0    9    1   -0.000043    0.000003
  -15   -6    0   10    1    0.000120   -0.000037
  -15   -6    0   11    1    0.000006   -0.000089
  -15   -6    0    1    2    0.000122   -0.000195
  -15   -6    0    2    2   -0.000086   -0.000088
  -15   -6    0    3    2    0.000114   -0.000089
  -15   -6    0    4    2    0.000129    0.000023
  -15   -6    0    5    2   -0.000037   -0.000010
  -15   -6    0    6    2   -0.000351   -0.000111
  -15   -6    0    7    2   -0.000018   -0.000093
  -15   -6    0    8    2   -0.000181   -0.000017
  -15   -6    0    9    2   -0.000003   -0.000174
  -15   -6    0   10    2    0.000123    0.000046
  -15   -6    0   11    2    0.000218    0.000047
  -15   -6    0    1    3    0.000047    0.000109
  -15   -6    0    2    3    0.000296    0.000160
  -15   -6    0    3    3    0.000159    0.000080
  -15   -6    0    4    3   -0.000191   -0.000001
  -15   -6    0    5    3   -0.000106   -0.000075
  -15   -6    0    6    3    0.000128   -0.000112
  -15   -6    0    7    3    0.000019    0.000207
  -15   -6    0    8    3    0.000282    0.000025
  -15   -6    0    9    3    0.000084    0.000046
  -15   -6    0   10    3   -0.000006   -0.000011
  -15   -6    0   11    3   -0.000067    0.000307
  -15   -6    0    1    4   -0.000112   -0.000084
  -15   -6    0    2    4    0.000057   -0.000092
  -15   -6    0    3    4   -0.000187    0.000133
  -15   -6    0    4    4    0.000188    0.000054
  -15   -6    0    5    4   -0.000005    0.000030
  -15   -6    0    6    4   -0.000221    0.000064
  -15   -6    0    7    4    0.000238   -0.000278
  -15   -6    0    8    4    0.000254   -0.000114
  -15   -6    0    9    4    0.000057   -0.000057
  -15   -6    0   10    4    0.000023   -0.000134
  -15   -6    0   11    4   -0.000000    0.000072
  -15   -6    0    1    5    0.000169    0.000033
  -15   -6    0    2    5    0.000134    0.000032
  -15   -6    0    3    5   -0.000055    0.000025
  -15   -6    0    4    5   -0.000074   -0.000057
  -15   -6    0    5    5    0.000049   -0.000020
  -15   -6    0    6    5    0.000110    0.000038
  -15   -6    0    7    5    0.000028   -0.000007
  -15   -6    0    8    5    0.000136   -0.000082
  -15   -6    0    9    5    0.000010    0.000102
  -15   -6    0   10    5   -0.000068    0.000027
  -15   -6    0   11    5    0.000035    0.000010
  -15   -6    0    1    6   -0.000487   -0.000098
  -15   -6    0    2    6   -0.000205   -0.000180
  -15   -6    0    3    6    0.000273    0.000297
  -15   -6    0    4    6   -0.000151   -0.000389
  -15   -6    0    5    6   -0.000026   -0.000065
  -15   -6    0    6    6   -0.000001    0.000018
  -15   -6    0    7    6    0.000007   -0.000016
  -15   -6    0    8    6    0.000008   -0.000072
  -15   -6    0    9    6   -0.000048   -0.000059
  -15   -6    0   10    6    0.000000    0.000013
  -15   -6    0   11    6    0.000026   -0.000009
  -15   -6    0    1    7    0.000084   -0.000444
  -15   -6    0    2    7   -0.000020   -0.000052
  -15   -6    0    3    7    0.000339    0.000093
  -15   -6    0    4    7    0.000176    0.000200
  -15   -6    0    5    7    0.000225    0.000060
  -15   -6    0    6    7   -0.000007    0.000006
  -15   -6    0    7    7   -0.000002   -0.000008
  -15   -6    0    8    7   -0.000018    0.000098
  -15   -6    0    9    7    0.000090    0.000029
  -15   -6    0   10    7    0.000010    0.000021
  -15   -6    0   11    7   -0.000008    0.000019
  -15   -6    0    1    8   -0.000164   -0.000022
  -15   -6    0    2    8   -0.000216   -0.000117
  -15   -6    0    3    8   -0.000092   -0.000280
  -15   -6    0    4    8    0.000150   -0.000145
  -15   -6    0    5    8   -0.000013   -0.000035
  -15   -6    0    6    8    0.000071    0.000031
  -15   -6    0    7    8   -0.000099   -0.000046
  -15   -6    0    8    8    0.000039    0.000034
  -15   -6    0    9    8    0.000073   -0.000021
  -15   -6    0   10    8   -0.000107    0.000140
  -15   -6    0   11    8    0.000003   -0.000273
  -15   -6    0    1    9    0.000191   -0.000053
  -15   -6    0    2    9    0.000039    0.000211
  -15   -6    0    3    9    0.000295   -0.000023
  -15   -6    0    4    9    0.000187    0.000076
  -15   -6    0    5    9   -0.000044   -0.000086
  -15   -6    0    6    9    0.000041   -0.000017
  -15   -6    0    7    9    0.000047   -0.000008
  -15   -6    0    8    9    0.000028   -0.000124
  -15   -6    0    9    9   -0.000112   -0.000055
  -15   -6    0   10    9    0.000125   -0.000114
  -15   -6    0   11    9    0.000069    0.000169
  -15   -6    0    1   10   -0.000142    0.000064
  -15   -6    0    2   10    0.000125    0.000051
  -15   -6    0    3   10   -0.000026   -0.000073
  -15   -6    0    4   10    0.000144   -0.000056
  -15   -6    0    5   10   -0.000179    0.000094
  -15   -6    0    6   10   -0.000016    0.000004
  -15   -6    0    7   10   -0.000005   -0.000011
  -15   -6    0    8   10    0.000061    0.000017
  -15   -6    0    9   10   -0.000004   -0.000058
  -15   -6    0   10   10    0.000018   -0.000027
  -15   -6    0   11   10   -0.000027   -0.000049
  -15   -6    0    1   11    0.000035    0.000230
  -15   -6    0    2   11    0.000200    0.000083
  -15   -6    0    3   11    0.000074   -0.000182
  -15   -6    0    4   11   -0.000218    0.000121
  -15   -6    0    5   11   -0.000176    0.000045
  -15   -6    0    6   11   -0.000016    0.000023
  -15   -6    0    7   11   -0.000025    0.000015
  -15   -6    0    8   11    0.000116    0.000026
  -15   -6    0    9   11    0.000003   -0.000022
  -15   -6    0   10   11    0.000033   -0.000030
  -15   -6    0   11   11    0.000035   -0.000001
  -14   -9    0    1    1    0.000037   -0.000083
  -14   -9    0    2    1   -0.000090    0.000084
  -14   -9    0    3    1   -0.000001   -0.000005
  -14   -9    0    4    1    0.000155   -0.000142
  -14   -9    0    5    1   -0.000086    0.000018
  -14   -9    0    6    1   -0.000185   -0.000018
  -14   -9    0    7    1    0.000020    0.000191
  -14   -9    0    8    1    0.000052   -0.000064
  -14   -9    0    9    1    0.000007    0.000058
  -14   -9    0   10    1   -0.000135   -0.000008
  -14   -9    0   11    1    0.000020    0.000061
  -14   -9    0    1    2   -0.000026    0.000126
  -14   -9    0    2    2   -0.000170   -0.000060
  -14   -9    0    3    2   -0.000044    0.000259
  -14   -9    0    4    2    0.000058    0.000008
  -14   -9    0    5    2    0.000046    0.000164
  -14   -9    0    6    2    0.000105    0.000154
  -14   -9    0    7    2   -0.000055   -0.000015
  -14   -9    0    8    2   -0.000099   -0.000051
  -14   -9    0    9    2   -0.000189    0.000002
  -14   -9    0   10    2    0.000007   -0.000069
  -14   -9    0   11    2    0.000009   -0.000033
  -14   -9    0    1    3    0.000065   -0.000049
  -14   -9    0    2    3   -0.000096   -0.000147
  -14   -9    0    3    3    0.000061    0.000021
  -14   -9    0    4    3    0.000072   -0.000027
  -14   -9    0    5    3   -0.000142   -0.000103
  -14   -9    0    6    3   -0.000053   -0.000008
  -14   -9    0    7    3    0.000083   -0.000185
  -14   -9    0    8    3   -0.000211   -0.000094
  -14   -9    0    9    3    0.000045    0.000117
  -14   -9    0   10    3    0.000004   -0.000067
  -14   -9    0   11    3    0.000065   -0.000069
  -14   -9    0    1    4    0.000093    0.000254
  -14   -9    0    2    4   -0.000013    0.000033
  -14   -9    0    3    4    0.000070    0.000025
  -14   -9    0    4    4    0.000077    0.000097
  -14   -9    0    5    4    0.000143    0.000042
  -14   -9    0    6    4    0.000086    0.000045
  -14   -9    0    7    4   -0.000077    0.000044
  -14   -9    0    8    4   -0.000148   -0.000179
  -14   -9    0    9    4    0.000055   -0.000010
  -14   -9    0   10    4    0.000010   -0.000009
  -14   -9    0   11    4   -0.000090    0.000023
  -14   -9    0    1    5   -0.000062   -0.000000
  -14   -9    0    2    5   -0.000019   -0.000168
  -14   -9    0    3    5   -0.000099   -0.000115
  -14   -9    0    4    5    0.000109   -0.000086
  -14   -9    0    5    5   -0.000078   -0.000022
  -14   -9    0    6    5    0.000014   -0.000082
  -14   -9    0    7    5   -0.000020    0.000011
  -14   -9    0    8    5   -0.000014    0.000047
  -14   -9    0    9    5   -0.000030    0.000038
  -14   -9    0   10    5   -0.000050    0.000012
  -14   -9    0   11    5    0.000065   -0.000048
  -14   -9    0    1    6   -0.000145   -0.000025
  -14   -9    0    2    6   -0.000163   -0.000188
  -14   -9    0    3    6    0.000025    0.000000
  -14   -9    0    4    6   -0.000088   -0.000190
  -14   -9    0    5    6    0.000078    0.000039
  -14   -9    0    6    6    0.000015    0.000006
  -14   -9    0    7    6   -0.000016   -0.000021
  -14   -9    0    8    6   -0.000005    0.000027
  -14   -9    0    9    6   -0.000013    0.000001
  -14   -9    0   10    6   -0.000004    0.000004
  -14   -9    0   11    6    0.000013   -0.000019
  -14   -9    0    1    7    0.000248   -0.000202
  -14   -9    0    2    7   -0.000098    0.000094
  -14   -9    0    3    7    0.000054    0.000029
  -14   -9    0    4    7   -0.000162    0.000189
  -14   -9    0    5    7    0.000046    0.000078
  -14   -9    0    6    7   -0.000025   -0.000038
  -14   -9    0    7    7    0.000022    0.000009
  -14   -9    0    8    7    0.000018   -0.000028
  -14   -9    0    9    7   -0.000040    0.000027
  -14   -9    0   10    7    0.000061   -0.000010
  -14   -9    0   11    7    0.000001    0.000012
  -14   -9    0    1    8    0.000066   -0.000015
  -14   -9    0    2    8   -0.000039   -0.000164
  -14   -9    0    3    8   -0.000074    0.000064
  -14   -9    0    4    8   -0.000216   -0.000057
  -14   -9    0    5    8   -0.000027    0.000046
  -14   -9    0    6    8    0.000021   -0.000084
  -14   -9    0    7    8    0.000012    0.000012
  -14   -9    0    8    8   -0.000063   -0.000024
  -14   -9    0    9    8   -0.000063   -0.000068
  -14   -9    0   10    8   -0.000094    0.000003
  -14   -9    0   11    8   -0.000008   -0.000067
  -14   -9    0    1    9    0.000051    0.000043
  -14   -9    0    2    9   -0.000232   -0.000004
  -14   -9    0    3    9    0.000128    0.000037
  -14   -9    0    4    9    0.000053    0.000275
  -14   -9    0    5    9   -0.000002    0.000076
  -14   -9    0    6    9   -0.000011   -0.000016
  -14   -9    0    7    9   -0.000060    0.000031
  -14   -9    0    8    9   -0.000059   -0.000034
  -14   -9    0    9    9    0.000128    0.000009
  -14   -9    0   10    9    0.000062    0.000032
  -14   -9    0   11    9   -0.000016    0.000093
  -14   -9    0    1   10   -0.000090    0.000044
  -14   -9    0    2   10    0.000103    0.000168
  -14   -9    0    3   10   -0.000108   -0.000035
  -14   -9    0    4   10   -0.000129   -0.000118
  -14   -9    0    5   10    0.000047    0.000208
  -14   -9    0    6   10    0.000017    0.000002
  -14   -9    0    7   10   -0.000004   -0.000018
  -14   -9    0    8   10    0.000088   -0.000001
  -14   -9    0    9   10    0.000031   -0.000066
  -14   -9    0   10   10   -0.000028    0.000009
  -14   -9    0   11   10    0.000006    0.000014
  -14   -9    0    1   11   -0.000057    0.000085
  -14   -9    0    2   11    0.000018    0.000202
  -14   -9    0    3   11    0.000204    0.000111
  -14   -9    0    4   11    0.000183    0.000120
  -14   -9    0    5   11   -0.000008   -0.000023
  -14   -9    0    6   11   -0.000007   -0.000037
  -14   -9    0    7   11   -0.000010    0.000011
  -14   -9    0    8   11    0.000055   -0.000068
  -14   -9    0    9   11   -0.000067   -0.000039
  -14   -9    0   10   11   -0.000009    0.000001
  -14   -9    0   11   11    0.000001    0.000038
  -14   -8    0    1    1   -0.000161    0.000187
  -14   -8    0    2    1    0.000124    0.000074
  -14   -8    0    3    1   -0.000004   -0.000020
  -14   -8    0    4    1    0.000089    0.000182
  -14   -8    0    5    1    0.000268   -0.000051
  -14   -8    0    6    1   -0.000127   -0.000136
  -14   -8    0    7    1   -0.000160    0.000247
  -14   -8    0    8    1   -0.000021    0.000156
  -14   -8    0    9    1    0.000068    0.000084
  -14   -8    0   10    1    0.000058   -0.000069
  -14   -8    0   11    1    0.000080   -0.000019
  -14   -8    0    1    2   -0.000027   -0.000157
  -14   -8    0    2    2   -0.000001   -0.000178
  -14   -8    0    3    2    0.000011   -0.000075
  -14   -8    0    4    2   -0.000097    0.000005
  -14   -8    0    5    2   -0.000003    0.000181
  -14   -8    0    6    2   -0.000071   -0.000028
  -14   -8    0    7    2    0.000022    0.000055
  -14   -8    0    8    2    0.000081    0.000022
  -14   -8    0    9    2    0.000052   -0.000148
  -14   -8    0   10    2    0.000070    0.000016
  -14   -8    0   11    2    0.000111    0.000028
  -14   -8    0    1    3    0.000108    0.000032
  -14   -8    0    2    3    0.000233   -0.000211
  -14   -8    0    3    3    0.000082   -0.000053
  -14   -8    0    4    3   -0.000106    0.000127
  -14   -8    0    5    3   -0.000042   -0.000196
  -14   -8    0    6    3    0.000063   -0.000032
  -14   -8    0    7    3    0.000138    0.000064
  -14   -8    0    8    3    0.000009    0.000024
  -14   -8    0    9    3    0.000029    0.000057
  -14   -8    0   10    3    0.000013   -0.000006
  -14   -8    0   11    3    0.000079    0.000261
  -14   -8    0    1    4   -0.000255    0.000178
  -14   -8    0    2    4   -0.000071    0.000147
  -14   -8    0    3    4   -0.000134    0.000228
  -14   -8    0    4    4    0.000054    0.000078
  -14   -8    0    5    4   -0.000007    0.000290
  -14   -8    0    6    4   -0.000108    0.000167
  -14   -8    0    7    4   -0.000045   -0.000105
  -14   -8    0    8    4    0.000172    0.000070
  -14   -8    0    9    4    0.000194   -0.000027
  -14   -8    0   10    4   -0.000092   -0.000107
  -14   -8    0   11    4    0.000065    0.000096
  -14   -8    0    1    5   -0.000082   -0.000079
  -14   -8    0    2    5   -0.000185    0.000002
  -14   -8    0    3    5    0.000008    0.000013
  -14   -8    0    4    5    0.000045   -0.000014
  -14   -8    0    5    5    0.000052    0.000073
  -14   -8    0    6    5   -0.000010   -0.000044
  -14   -8    0    7    5    0.000011   -0.000072
  -14   -8    0    8    5   -0.000023   -0.000127
  -14   -8    0    9    5    0.000083    0.000003
  -14   -8    0   10    5   -0.000124   -0.000125
  -14   -8    0   11    5   -0.000036    0.000006
  -14   -8    0    1    6    0.000021   -0.000069
  -14   -8    0    2    6    0.000106   -0.000063
  -14   -8    0    3    6   -0.000069    0.000055
  -14   -8    0    4    6   -0.000128    0.000046
  -14   -8    0    5    6    0.000140   -0.000054
  -14   -8    0    6    6    0.000007   -0.000010
  -14   -8    0    7    6    0.000010   -0.000023
  -14   -8    0    8    6   -0.000030   -0.000006
  -14   -8    0    9    6    0.000000   -0.000037
  -14   -8    0   10    6   -0.000010    0.000012
  -14   -8    0   11    6    0.000022   -0.000025
  -14   -8    0    1    7    0.000217   -0.000027
  -14   -8    0    2    7   -0.000089   -0.000046
  -14   -8    0    3    7   -0.000230    0.000066
  -14   -8    0    4    7    0.000036    0.000165
  -14   -8    0    5    7    0.000009   -0.000052
  -14   -8    0    6    7    0.000026   -0.000021
  -14   -8    0    7    7   -0.000004   -0.000001
  -14   -8    0    8    7   -0.000030   -0.000052
  -14   -8    0    9    7    0.000069    0.000063
  -14   -8    0   10    7    0.000017    0.000008
  -14   -8    0   11    7   -0.000023   -0.000013
  -14   -8    0    1    8    0.000010   -0.000094
  -14   -8    0    2    8   -0.000164   -0.000274
  -14   -8    0    3    8    0.000133   -0.000078
  -14   -8    0    4    8   -0.000133   -0.000013
  -14   -8    0    5    8   -0.000060    0.000175
  -14   -8    0    6    8   -0.000016    0.000111
  -14   -8    0    7    8    0.000019   -0.000062
  -14   -8    0    8    8    0.000027    0.000035
  -14   -8    0    9    8   -0.000029    0.000179
  -14   -8    0   10    8    0.000011   -0.000005
  -14   -8    0   11    8    0.000028   -0.000018
  -14   -8    0    1    9   -0.000065   -0.000051
  -14   -8    0    2    9    0.000051   -0.000305
  -14   -8    0    3    9    0.000046    0.000088
  -14   -8    0    4    9   -0.000225    0.000014
  -14   -8    0    5    9   -0.000047    0.000132
  -14   -8    0    6    9    0.000014   -0.000085
  -14   -8    0    7    9    0.000051    0.000081
  -14   -8    0    8    9    0.000058    0.000050
  -14   -8    0    9    9   -0.000112   -0.000117
  -14   -8    0   10    9    0.000002    0.000109
  -14   -8    0   11    9   -0.000017    0.000046
  -14   -8    0    1   10    0.000050   -0.000125
  -14   -8    0    2   10   -0.000007    0.000107
  -14   -8    0    3   10   -0.000100    0.000013
  -14   -8    0    4   10    0.000018    0.000033
  -14   -8    0    5   10   -0.000102   -0.000078
  -14   -8    0    6   10    0.000009    0.000033
  -14   -8    0    7   10    0.000010    0.000006
  -14   -8    0    8   10   -0.000006    0.000053
  -14   -8    0    9   10    0.000068    0.000170
  -14   -8    0   10   10    0.000039   -0.000039
  -14   -8    0   11   10   -0.000022   -0.000006
  -14   -8    0    1   11    0.000035    0.000084
  -14   -8    0    2   11   -0.000016    0.000034
  -14   -8    0    3   11   -0.000203   -0.000056
  -14   -8    0    4   11   -0.000046   -0.000112
  -14   -8    0    5   11    0.000124    0.000025
  -14   -8    0    6   11    0.000010   -0.000043
  -14   -8    0    7   11   -0.000003   -0.000016
  -14   -8    0    8   11   -0.000031    0.000032
  -14   -8    0    9   11    0.000102   -0.000051
  -14   -8    0   10   11   -0.000026    0.000018
  -14   -8    0   11   11    0.000020    0.000026
  -14   -7    0    1    1   -0.000155    0.000037
  -14   -7    0    2    1   -0.000004    0.000133
  -14   -7    0    3    1    0.000056   -0.000114
  -14   -7    0    4    1   -0.000317    0.000111
  -14   -7    0    5    1   -0.000041    0.000088
  -14   -7    0    6    1   -0.000034    0.000174
  -14   -7    0    7    1    0.000165   -0.000115
  -14   -7    0    8    1    0.000113    0.000011
  -14   -7    0    9    1    0.000077    0.000110
  -14   -7    0   10    1    0.000134    0.000076
  -14   -7    0   11    1    0.000026   -0.000081
  -14   -7    0    1    2    0.000011   -0.000047
  -14   -7    0    2    2    0.000101    0.000182
  -14   -7    0    3    2    0.000387   -0.000016
  -14   -7    0    4    2   -0.000169    0.000022
  -14   -7    0    5    2    0.000151    0.000033
  -14   -7    0    6    2    0.000220   -0.000093
  -14   -7    0    7    2   -0.000021    0.000142
  -14   -7    0    8    2   -0.000024    0.000167
  -14   -7    0    9    2    0.000121    0.000355
  -14   -7    0   10    2   -0.000139   -0.000030
  -14   -7    0   11    2   -0.000062   -0.000084
  -14   -7    0    1    3   -0.000018   -0.000002
  -14   -7    0    2    3   -0.000077   -0.000046
  -14   -7    0    3    3   -0.000004   -0.000083
  -14   -7    0    4    3   -0.000194   -0.000068
  -14   -7    0    5    3   -0.000081    0.000051
  -14   -7    0    6    3   -0.000013   -0.000077
  -14   -7    0    7    3   -0.000156   -0.000002
  -14   -7    0    8    3    0.000040    0.000047
  -14   -7    0    9    3    0.000040    0.000015
  -14   -7    0   10    3    0.000010    0.000095
  -14   -7    0   11    3   -0.000015    0.000216
  -14   -7    0    1    4    0.000062   -0.000131
  -14   -7    0    2    4   -0.000059    0.000082
  -14   -7    0    3    4   -0.000165   -0.000017
  -14   -7    0    4    4    0.000004   -0.000114
  -14   -7    0    5    4    0.000155   -0.000030
  -14   -7    0    6    4   -0.000026    0.000054
  -14   -7    0    7    4   -0.000021    0.000050
  -14   -7    0    8    4   -0.000090    0.000252
  -14   -7    0    9    4   -0.000083    0.000088
  -14   -7    0   10    4    0.000069   -0.000018
  -14   -7    0   11    4    0.000033    0.000078
  -14   -7    0    1    5    0.000025    0.000071
  -14   -7    0    2    5   -0.000143    0.000105
  -14   -7    0    3    5   -0.000112   -0.000047
  -14   -7    0    4    5   -0.000093   -0.000221
  -14   -7    0    5    5   -0.000109    0.000028
  -14   -7    0    6    5   -0.000037    0.000058
  -14   -7    0    7    5   -0.000002    0.000035
  -14   -7    0    8    5    0.000033   -0.000021
  -14   -7    0    9    5    0.000042   -0.000042
  -14   -7    0   10    5    0.000080    0.000152
  -14   -7    0   11    5   -0.000012   -0.000005
  -14   -7    0    1    6    0.000244    0.000232
  -14   -7    0    2    6    0.000068   -0.000091
  -14   -7    0    3    6   -0.000149    0.000129
  -14   -7    0    4    6   -0.000055    0.000092
  -14   -7    0    5    6   -0.000051   -0.000157
  -14   -7    0    6    6    0.000020   -0.000010
  -14   -7    0    7    6    0.000027    0.000003
  -14   -7    0    8    6   -0.000003   -0.000000
  -14   -7    0    9    6    0.000065   -0.000079
  -14   -7    0   10    6   -0.000005   -0.000029
  -14   -7    0   11    6    0.000068    0.000020
  -14   -7    0    1    7   -0.000102   -0.000057
  -14   -7    0    2    7   -0.000084   -0.000017
  -14   -7    0    3    7    0.000008    0.000152
  -14   -7    0    4    7    0.000033    0.000040
  -14   -7    0    5    7    0.000053   -0.000001
  -14   -7    0    6    7    0.000003    0.000035
  -14   -7    0    7    7    0.000002   -0.000001
  -14   -7    0    8    7    0.000044    0.000006
  -14   -7    0    9    7    0.000028   -0.000047
  -14   -7    0   10    7   -0.000005   -0.000018
  -14   -7    0   11    7    0.000016    0.000014
  -14   -7    0    1    8   -0.000031   -0.000057
  -14   -7    0    2    8   -0.000036    0.000021
  -14   -7    0    3    8    0.000172    0.000123
  -14   -7    0    4    8    0.000077   -0.000152
  -14   -7    0    5    8    0.000095   -0.000035
  -14   -7    0    6    8   -0.000053   -0.000012
  -14   -7    0    7    8    0.000059   -0.000017
  -14   -7    0    8    8    0.000077   -0.000003
  -14   -7    0    9    8   -0.000116   -0.000004
  -14   -7    0   10    8    0.000001    0.000025
  -14   -7    0   11    8   -0.000054    0.000005
  -14   -7    0    1    9   -0.000177    0.000048
  -14   -7    0    2    9   -0.000142   -0.000060
  -14   -7    0    3    9   -0.000205   -0.000237
  -14   -7    0    4    9    0.000188   -0.000071
  -14   -7    0    5    9    0.000163    0.000039
  -14   -7    0    6    9    0.000013    0.000014
  -14   -7    0    7    9    0.000043    0.000086
  -14   -7    0    8    9   -0.000116    0.000006
  -14   -7    0    9    9    0.000060   -0.000090
  -14   -7    0   10    9    0.000181   -0.000097
  -14   -7    0   11    9    0.000023    0.000129
  -14   -7    0    1   10    0.000136   -0.000161
  -14   -7    0    2   10    0.000057    0.000046
  -14   -7    0    3   10    0.000029    0.000057
  -14   -7    0    4   10    0.000083    0.000098
  -14   -7    0    5   10    0.000240    0.000013
  -14   -7    0    6   10   -0.000001   -0.000024
  -14   -7    0    7   10   -0.000014   -0.000003
  -14   -7    0    8   10    0.000108   -0.000067
  -14   -7    0    9   10    0.000059   -0.000141
  -14   -7    0   10   10    0.000016    0.000055
  -14   -7    0   11   10   -0.000028    0.000009
  -14   -7    0    1   11   -0.000148   -0.000136
  -14   -7    0    2   11   -0.000056    0.000009
  -14   -7    0    3   11   -0.000305   -0.000194
  -14   -7    0    4   11   -0.000324   -0.000031
  -14   -7    0    5   11   -0.000079   -0.000126
  -14   -7    0    6   11    0.000019    0.000003
  -14   -7    0    7   11    0.000026   -0.000002
  -14   -7    0    8   11   -0.000092   -0.000128
  -14   -7    0    9   11   -0.000157   -0.000006
  -14   -7    0   10   11   -0.000009   -0.000000
  -14   -7    0   11   11   -0.000009   -0.000001
  -14   -6    0    1    1    0.000231   -0.000005
  -14   -6    0    2    1   -0.000164   -0.000141
  -14   -6    0    3    1    0.000169   -0.000019
  -14   -6    0    4    1   -0.000078    0.000107
  -14   -6    0    5    1    0.000145   -0.000142
  -14   -6    0    6    1   -0.000165    0.000017
  -14   -6    0    7    1    0.000294    0.000168
  -14   -6    0    8    1    0.000175   -0.000062
  -14   -6    0    9    1    0.000055    0.000013
  -14   -6    0   10    1   -0.000107   -0.000059
  -14   -6    0   11    1   -0.000111   -0.000052
  -14   -6    0    1    2   -0.000134    0.000012
  -14   -6    0    2    2    0.000078    0.000076
  -14   -6    0    3    2   -0.000045    0.000068
  -14   -6    0    4    2   -0.000116    0.000069
  -14   -6    0    5    2    0.000068   -0.000052
  -14   -6    0    6    2    0.000051    0.000316
  -14   -6    0    7    2   -0.000043    0.000042
  -14   -6    0    8    2    0.000051    0.000070
  -14   -6    0    9    2   -0.000052    0.000091
  -14   -6    0   10    2   -0.000015   -0.000194
  -14   -6    0   11    2   -0.000070   -0.000144
  -14   -6    0    1    3   -0.000086   -0.000065
  -14   -6    0    2    3   -0.000198   -0.000098
  -14   -6    0    3    3   -0.000153   -0.000009
  -14   -6    0    4    3    0.000010   -0.000044
  -14   -6    0    5    3   -0.000023    0.000022
  -14   -6    0    6    3   -0.000026   -0.000156
  -14   -6    0    7    3    0.000179   -0.000171
  -14   -6    0    8    3    0.000045   -0.000063
  -14   -6    0    9    3   -0.000067   -0.000074
  -14   -6    0   10    3    0.000092    0.000109
  -14   -6    0   11    3    0.000155   -0.000110
  -14   -6    0    1    4   -0.000041   -0.000098
  -14   -6    0    2    4   -0.000002    0.000012
  -14   -6    0    3    4    0.000008    0.000007
  -14   -6    0    4    4   -0.000135   -0.000040
  -14   -6    0    5    4    0.000115    0.000122
  -14   -6    0    6    4    0.000111    0.000220
  -14   -6    0    7    4   -0.000209    0.000099
  -14   -6    0    8    4    0.000028    0.000118
  -14   -6    0    9    4   -0.000156   -0.000101
  -14   -6    0   10    4   -0.000007    0.000091
  -14   -6    0   11    4   -0.000060   -0.000300
  -14   -6    0    1    5    0.000021    0.000025
  -14   -6    0    2    5    0.000024   -0.000053
  -14   -6    0    3    5   -0.000053    0.000087
  -14   -6    0    4    5    0.000093   -0.000138
  -14   -6    0    5    5    0.000241   -0.000067
  -14   -6    0    6    5    0.000003   -0.000028
  -14   -6    0    7    5   -0.000030   -0.000057
  -14   -6    0    8    5   -0.000198   -0.000130
  -14   -6    0    9    5    0.000088   -0.000103
  -14   -6    0   10    5   -0.000156    0.000064
  -14   -6    0   11    5   -0.000035    0.000044
  -14   -6    0    1    6    0.000294    0.000164
  -14   -6    0    2    6    0.000098   -0.000035
  -14   -6    0    3    6   -0.000073    0.000259
  -14   -6    0    4    6    0.000144    0.000171
  -14   -6    0    5    6   -0.000060   -0.000099
  -14   -6    0    6    6   -0.000020   -0.000008
  -14   -6    0    7    6   -0.000010    0.000021
  -14   -6    0    8    6   -0.000007   -0.000074
  -14   -6    0    9    6    0.000028    0.000056
  -14   -6    0   10    6   -0.000006   -0.000011
  -14   -6    0   11    6    0.000027   -0.000022
  -14   -6    0    1    7   -0.000412    0.000356
  -14   -6    0    2    7   -0.000118   -0.000054
  -14   -6    0    3    7   -0.000076   -0.000027
  -14   -6    0    4    7   -0.000001   -0.000180
  -14   -6    0    5    7   -0.000069   -0.000127
  -14   -6    0    6    7   -0.000020    0.000008
  -14   -6    0    7    7    0.000011   -0.000000
  -14   -6    0    8    7   -0.000045    0.000091
  -14   -6    0    9    7    0.000046   -0.000050
  -14   -6    0   10    7   -0.000008   -0.000002
  -14   -6    0   11    7   -0.000016    0.000011
  -14   -6    0    1    8    0.000107   -0.000003
  -14   -6    0    2    8   -0.000047    0.000135
  -14   -6    0    3    8    0.000137    0.000069
  -14   -6    0    4    8    0.000297   -0.000136
  -14   -6    0    5    8   -0.000042    0.000126
  -14   -6    0    6    8    0.000062   -0.000004
  -14   -6    0    7    8   -0.000109   -0.000022
  -14   -6    0    8    8    0.000014   -0.000080
  -14   -6    0    9    8    0.000188    0.000024
  -14   -6    0   10    8    0.000076    0.000077
  -14   -6    0   11    8   -0.000082   -0.000029
  -14   -6    0    1    9   -0.000283   -0.000162
  -14   -6    0    2    9   -0.000036   -0.000194
  -14   -6    0    3    9   -0.000117   -0.000224
  -14   -6    0    4    9   -0.000061   -0.000106
  -14   -6    0    5    9    0.000086    0.000142
  -14   -6    0    6    9   -0.000096    0.000042
  -14   -6    0    7    9    0.000075   -0.000102
  -14   -6    0    8    9    0.000092   -0.000074
  -14   -6    0    9    9   -0.000242    0.000172
  -14   -6    0   10    9   -0.000221   -0.000076
  -14   -6    0   11    9    0.000157   -0.000043
  -14   -6    0    1   10    0.000253   -0.000117
  -14   -6    0    2   10   -0.000108   -0.000052
  -14   -6    0    3   10    0.000189   -0.000116
  -14   -6    0    4   10    0.000263    0.000207
  -14   -6    0    5   10   -0.000198   -0.000055
  -14   -6    0    6   10   -0.000036    0.000005
  -14   -6    0    7   10    0.000007    0.000016
  -14   -6    0    8   10   -0.000062   -0.000037
  -14   -6    0    9   10   -0.000012    0.000062
  -14   -6    0   10   10   -0.000043   -0.000044
  -14   -6    0   11   10    0.000007   -0.000005
  -14   -6    0    1   11    0.000069   -0.000198
  -14   -6    0    2   11   -0.000165   -0.000150
  -14   -6    0    3   11   -0.000328   -0.000258
  -14   -6    0    4   11   -0.000238   -0.000029
  -14   -6    0    5   11    0.000056    0.000002
  -14   -6    0    6   11    0.000009    0.000015
  -14   -6    0    7   11   -0.000033    0.000007
  -14   -6    0    8   11   -0.000005    0.000180
  -14   -6    0    9   11    0.000120   -0.000071
  -14   -6    0   10   11    0.000055    0.000019
  -14   -6    0   11   11    0.000021    0.000005
  -14   -5    0    1    1    0.000245   -0.000247
  -14   -5    0    2    1   -0.000176   -0.000069
  -14   -5    0    3    1    0.000168    0.000188
  -14   -5    0    4    1   -0.000156    0.000063
  -14   -5    0    5    1   -0.000219    0.000228
  -14   -5    0    6    1    0.000183   -0.000284
  -14   -5    0    7    1   -0.000281    0.000046
  -14   -5    0    8    1    0.000102   -0.000203
  -14   -5    0    9    1    0.000038   -0.000068
  -14   -5    0   10    1    0.000034   -0.000248
  -14   -5    0   11    1   -0.000142   -0.000016
  -14   -5    0    1    2    0.000034    0.000185
  -14   -5    0    2    2    0.000170   -0.000041
  -14   -5    0    3    2   -0.000023    0.000117
  -14   -5    0    4    2    0.000035    0.000097
  -14   -5    0    5    2   -0.000023   -0.000195
  -14   -5    0    6    2   -0.000176    0.000080
  -14   -5    0    7    2    0.000036   -0.000004
  -14   -5    0    8    2   -0.000035   -0.000022
  -14   -5    0    9    2    0.000132    0.000125
  -14   -5    0   10    2    0.000064    0.000048
  -14   -5    0   11    2   -0.000123    0.000001
  -14   -5    0    1    3   -0.000102   -0.000218
  -14   -5    0    2    3   -0.000229    0.000254
  -14   -5    0    3    3   -0.000165    0.000124
  -14   -5    0    4    3    0.000013   -0.000084
  -14   -5    0    5    3    0.000178    0.000279
  -14   -5    0    6    3   -0.000070   -0.000010
  -14   -5    0    7    3    0.000188    0.000226
  -14   -5    0    8    3   -0.000055   -0.000212
  -14   -5    0    9    3    0.000009    0.000006
  -14   -5    0   10    3    0.000105    0.000011
  -14   -5    0   11    3    0.000140   -0.000048
  -14   -5    0    1    4   -0.000124   -0.000393
  -14   -5    0    2    4   -0.000019   -0.000177
  -14   -5    0    3    4   -0.000073   -0.000214
  -14   -5    0    4    4   -0.000227    0.000077
  -14   -5    0    5    4   -0.000064   -0.000186
  -14   -5    0    6    4   -0.000090   -0.000048
  -14   -5    0    7    4   -0.000049   -0.000020
  -14   -5    0    8    4    0.000000    0.000164
  -14   -5    0    9    4    0.000087    0.000033
  -14   -5    0   10    4   -0.000042   -0.000011
  -14   -5    0   11    4    0.000115   -0.000248
  -14   -5    0    1    5    0.000063   -0.000034
  -14   -5    0    2    5    0.000256    0.000005
  -14   -5    0    3    5   -0.000028   -0.000026
  -14   -5    0    4    5    0.000125    0.000033
  -14   -5    0    5    5   -0.000098    0.000046
  -14   -5    0    6    5    0.000060    0.000164
  -14   -5    0    7    5   -0.000008    0.000082
  -14   -5    0    8    5    0.000043    0.000081
  -14   -5    0    9    5   -0.000059   -0.000090
  -14   -5    0   10    5    0.000232   -0.000071
  -14   -5    0   11    5    0.000044    0.000085
  -14   -5    0    1    6   -0.000048    0.000218
  -14   -5    0    2    6   -0.000637   -0.000217
  -14   -5    0    3    6    0.000174    0.000299
  -14   -5    0    4    6    0.000047   -0.000538
  -14   -5    0    5    6   -0.000269    0.000116
  -14   -5    0    6    6   -0.000008    0.000013
  -14   -5    0    7    6   -0.000046    0.000015
  -14   -5    0    8    6    0.000093   -0.000002
  -14   -5    0    9    6   -0.000067   -0.000016
  -14   -5    0   10    6   -0.000007   -0.000042
  -14   -5    0   11    6    0.000001    0.000019
  -14   -5    0    1    7   -0.000821   -0.000204
  -14   -5    0    2    7   -0.000043   -0.000007
  -14   -5    0    3    7    0.000698   -0.000666
  -14   -5    0    4    7   -0.000510    0.000106
  -14   -5    0    5    7   -0.000005    0.000122
  -14   -5    0    6    7   -0.000034   -0.000007
  -14   -5    0    7    7    0.000001    0.000007
  -14   -5    0    8    7    0.000027   -0.000001
  -14   -5    0    9    7   -0.000094   -0.000052
  -14   -5    0   10    7   -0.000026   -0.000028
  -14   -5    0   11    7    0.000038    0.000004
  -14   -5    0    1    8    0.000241   -0.000006
  -14   -5    0    2    8    0.000265    0.000106
  -14   -5    0    3    8   -0.000025    0.000307
  -14   -5    0    4    8   -0.000086   -0.000084
  -14   -5    0    5    8   -0.000128   -0.000063
  -14   -5    0    6    8   -0.000030    0.000010
  -14   -5    0    7    8    0.000020   -0.000060
  -14   -5    0    8    8    0.000047    0.000026
  -14   -5    0    9    8   -0.000081   -0.000017
  -14   -5    0   10    8   -0.000049   -0.000001
  -14   -5    0   11    8    0.000003    0.000040
  -14   -5    0    1    9    0.000394   -0.000288
  -14   -5    0    2    9   -0.000038    0.000271
  -14   -5    0    3    9    0.000094    0.000050
  -14   -5    0    4    9    0.000380   -0.000247
  -14   -5    0    5    9    0.000196   -0.000131
  -14   -5    0    6    9    0.000012    0.000010
  -14   -5    0    7    9   -0.000005    0.000016
  -14   -5    0    8    9    0.000008    0.000002
  -14   -5    0    9    9    0.000040   -0.000071
  -14   -5    0   10    9    0.000129   -0.000014
  -14   -5    0   11    9   -0.000073    0.000063
  -14   -5    0    1   10    0.000167    0.000570
  -14   -5    0    2   10    0.000104   -0.000135
  -14   -5    0    3   10    0.000200   -0.000215
  -14   -5    0    4   10   -0.000131    0.000056
  -14   -5    0    5   10   -0.000010   -0.000159
  -14   -5    0    6   10   -0.000005    0.000019
  -14   -5    0    7   10   -0.000004   -0.000018
  -14   -5    0    8   10    0.000098   -0.000075
  -14   -5    0    9   10   -0.000068   -0.000144
  -14   -5    0   10   10    0.000036    0.000024
  -14   -5    0   11   10    0.000014    0.000005
  -14   -5    0    1   11   -0.000108    0.000255
  -14   -5    0    2   11    0.000107    0.000128
  -14   -5    0    3   11    0.000489   -0.000412
  -14   -5    0    4   11    0.000658    0.000443
  -14   -5    0    5   11   -0.000204    0.000067
  -14   -5    0    6   11   -0.000029    0.000042
  -14   -5    0    7   11    0.000019   -0.000027
  -14   -5    0    8   11   -0.000169   -0.000015
  -14   -5    0    9   11   -0.000081    0.000068
  -14   -5    0   10   11    0.000002   -0.000030
  -14   -5    0   11   11   -0.000040    0.000041
  -14   -4    0    1    1    0.000295   -0.000298
  -14   -4    0    2    1   -0.000190   -0.000093
  -14   -4    0    3    1   -0.000050    0.000282
  -14   -4    0    4    1    0.000440   -0.000608
  -14   -4    0    5    1   -0.000341   -0.000207
  -14   -4    0    6    1    0.000232   -0.000342
  -14   -4    0    7    1   -0.000285   -0.000060
  -14   -4    0    8    1   -0.000045   -0.000037
  -14   -4    0    9    1   -0.000167    0.000072
  -14   -4    0   10    1    0.000028   -0.000050
  -14   -4    0   11    1    0.000080    0.000142
  -14   -4    0    1    2   -0.000221    0.000176
  -14   -4    0    2    2   -0.000141   -0.000427
  -14   -4    0    3    2   -0.000428    0.000883
  -14   -4    0    4    2   -0.000046   -0.000079
  -14   -4    0    5    2   -0.000106    0.000466
  -14   -4    0    6    2    0.000027    0.000002
  -14   -4    0    7    2   -0.000067   -0.000015
  -14   -4    0    8    2    0.000176   -0.000139
  -14   -4    0    9    2   -0.000213   -0.000046
  -14   -4    0   10    2   -0.000003    0.000043
  -14   -4    0   11    2   -0.000071    0.000124
  -14   -4    0    1    3    0.000224   -0.000168
  -14   -4    0    2    3   -0.000158   -0.000198
  -14   -4    0    3    3    0.000046    0.000247
  -14   -4    0    4    3    0.000207   -0.000004
  -14   -4    0    5    3   -0.000346    0.000011
  -14   -4    0    6    3   -0.000107    0.000177
  -14   -4    0    7    3   -0.000121    0.000129
  -14   -4    0    8    3   -0.000055   -0.000313
  -14   -4    0    9    3   -0.000100    0.000141
  -14   -4    0   10    3    0.000017   -0.000125
  -14   -4    0   11    3   -0.000120   -0.000073
  -14   -4    0    1    4    0.000081    0.000109
  -14   -4    0    2    4    0.000005    0.000005
  -14   -4    0    3    4    0.000246   -0.000124
  -14   -4    0    4    4   -0.000109    0.000387
  -14   -4    0    5    4    0.000238    0.000137
  -14   -4    0    6    4   -0.000108   -0.000343
  -14   -4    0    7    4    0.000045    0.000069
  -14   -4    0    8    4   -0.000108   -0.000170
  -14   -4    0    9    4   -0.000048    0.000007
  -14   -4    0   10    4   -0.000108   -0.000110
  -14   -4    0   11    4   -0.000074    0.000034
  -14   -4    0    1    5    0.000138   -0.000209
  -14   -4    0    2    5    0.000087   -0.000366
  -14   -4    0    3    5    0.000175    0.000213
  -14   -4    0    4    5    0.000283   -0.000206
  -14   -4    0    5    5   -0.000027   -0.000317
  -14   -4    0    6    5    0.000060   -0.000054
  -14   -4    0    7    5    0.000047   -0.000016
  -14   -4    0    8    5   -0.000157    0.000032
  -14   -4    0    9    5    0.000021   -0.000145
  -14   -4    0   10    5   -0.000075    0.000072
  -14   -4    0   11    5    0.000000   -0.000008
  -14   -4    0    1    6   -0.000830   -0.000318
  -14   -4    0    2    6   -0.000106   -0.000967
  -14   -4    0    3    6    0.000026   -0.000129
  -14   -4    0    4    6    0.000602   -0.000930
  -14   -4    0    5    6    0.000051    0.000156
  -14   -4    0    6    6    0.000016    0.000042
  -14   -4    0    7    6   -0.000065   -0.000004
  -14   -4    0    8    6   -0.000058    0.000082
  -14   -4    0    9    6   -0.000086    0.000089
  -14   -4    0   10    6   -0.000004    0.000035
  -14   -4    0   11    6   -0.000036    0.000026
  -14   -4    0    1    7    0.000735   -0.000714
  -14   -4    0    2    7   -0.000107   -0.000125
  -14   -4    0    3    7    0.000723    0.000133
  -14   -4    0    4    7   -0.001367    0.000008
  -14   -4    0    5    7   -0.000134   -0.000003
  -14   -4    0    6    7    0.000042   -0.000006
  -14   -4    0    7    7   -0.000021   -0.000028
  -14   -4    0    8    7    0.000103    0.000082
  -14   -4    0    9    7    0.000012   -0.000175
  -14   -4    0   10    7    0.000036   -0.000001
  -14   -4    0   11    7   -0.000015   -0.000021
  -14   -4    0    1    8    0.000381   -0.000000
  -14   -4    0    2    8   -0.000153   -0.000403
  -14   -4    0    3    8   -0.000816    0.000176
  -14   -4    0    4    8   -0.000841    0.000165
  -14   -4    0    5    8    0.000045    0.000241
  -14   -4    0    6    8    0.000140   -0.000052
  -14   -4    0    7    8   -0.000025    0.000162
  -14   -4    0    8    8   -0.000066    0.000003
  -14   -4    0    9    8    0.000126   -0.000074
  -14   -4    0   10    8    0.000241   -0.000101
  -14   -4    0   11    8   -0.000087    0.000106
  -14   -4    0    1    9    0.000148   -0.000093
  -14   -4    0    2    9   -0.000274   -0.000160
  -14   -4    0    3    9    0.000559    0.000411
  -14   -4    0    4    9   -0.000011    0.000506
  -14   -4    0    5    9    0.000072    0.000119
  -14   -4    0    6    9   -0.000036   -0.000011
  -14   -4    0    7    9   -0.000065   -0.000105
  -14   -4    0    8    9   -0.000091   -0.000163
  -14   -4    0    9    9    0.000059    0.000369
  -14   -4    0   10    9   -0.000028    0.000224
  -14   -4    0   11    9   -0.000043   -0.000164
  -14   -4    0    1   10   -0.000528    0.000381
  -14   -4    0    2   10    0.000144    0.000611
  -14   -4    0    3   10   -0.000177   -0.000217
  -14   -4    0    4   10   -0.000209   -0.000403
  -14   -4    0    5   10   -0.000343    0.000261
  -14   -4    0    6   10    0.000033    0.000027
  -14   -4    0    7   10    0.000008    0.000013
  -14   -4    0    8   10   -0.000221    0.000100
  -14   -4    0    9   10    0.000205    0.000239
  -14   -4    0   10   10   -0.000053    0.000020
  -14   -4    0   11   10    0.000017   -0.000042
  -14   -4    0    1   11   -0.000232    0.000011
  -14   -4    0    2   11    0.000007    0.000631
  -14   -4    0    3   11    0.001142    0.000450
  -14   -4    0    4   11    0.000660    0.000692
  -14   -4    0    5   11    0.000099    0.000045
  -14   -4    0    6   11    0.000026   -0.000041
  -14   -4    0    7   11   -0.000023    0.000042
  -14   -4    0    8   11    0.000220    0.000144
  -14   -4    0    9   11   -0.000005   -0.000434
  -14   -4    0   10   11   -0.000023   -0.000047
  -14   -4    0   11   11    0.000003    0.000001
  -13  -10    0    1    1   -0.000154    0.000121
  -13  -10    0    2    1    0.000094   -0.000110
  -13  -10    0    3    1   -0.000109    0.000044
  -13  -10    0    4    1    0.000165   -0.000010
  -13  -10    0    5    1    0.000020   -0.000042
  -13  -10    0    6    1    0.000083   -0.000200
  -13  -10    0    7    1   -0.000120   -0.000024
  -13  -10    0    8    1   -0.000014    0.000050
  -13  -10    0    9    1   -0.000062   -0.000025
  -13  -10    0   10    1    0.000103    0.000036
  -13  -10    0   11    1    0.000101    0.000153
  -13  -10    0    1    2   -0.000088   -0.000123
  -13  -10    0    2    2   -0.000005   -0.000152
  -13  -10    0    3    2   -0.000132   -0.000083
  -13  -10    0    4    2    0.000056    0.000011
  -13  -10    0    5    2   -0.000069   -0.000012
  -13  -10    0    6    2   -0.000085   -0.000102
  -13  -10    0    7    2   -0.000032   -0.000021
  -13  -10    0    8    2   -0.000107   -0.000070
  -13  -10    0    9    2   -0.000104   -0.000093
  -13  -10    0   10    2   -0.000016    0.000010
  -13  -10    0   11    2    0.000079    0.000029
  -13  -10    0    1    3    0.000098    0.000035
  -13  -10    0    2    3    0.000222   -0.000109
  -13  -10    0    3    3    0.000126    0.000040
  -13  -10    0    4    3   -0.000047    0.000132
  -13  -10    0    5    3   -0.000006    0.000084
  -13  -10    0    6    3    0.000001    0.000081
  -13  -10    0    7    3   -0.000150    0.000089
  -13  -10    0    8    3    0.000024   -0.000068
  -13  -10    0    9    3    0.000160    0.000194
  -13  -10    0   10    3   -0.000035   -0.000049
  -13  -10    0   11    3   -0.000016    0.000223
  -13  -10    0    1    4   -0.000131    0.000145
  -13  -10    0    2    4    0.000024    0.000005
  -13  -10    0    3    4    0.000037    0.000164
  -13  -10    0    4    4    0.000000    0.000008
  -13  -10    0    5    4   -0.000007    0.000109
  -13  -10    0    6    4   -0.000020   -0.000136
  -13  -10    0    7    4    0.000082   -0.000025
  -13  -10    0    8    4    0.000156   -0.000050
  -13  -10    0    9    4    0.000157   -0.000112
  -13  -10    0   10    4    0.000012   -0.000119
  -13  -10    0   11    4   -0.000033    0.000132
  -13  -10    0    1    5   -0.000166    0.000036
  -13  -10    0    2    5    0.000037    0.000042
  -13  -10    0    3    5    0.000052    0.000003
  -13  -10    0    4    5    0.000044    0.000045
  -13  -10    0    5    5   -0.000068    0.000108
  -13  -10    0    6    5    0.000039    0.000012
  -13  -10    0    7    5   -0.000092    0.000051
  -13  -10    0    8    5   -0.000005    0.000000
  -13  -10    0    9    5    0.000047   -0.000107
  -13  -10    0   10    5   -0.000028   -0.000078
  -13  -10    0   11    5    0.000035   -0.000024
  -13  -10    0    1    6   -0.000140    0.000015
  -13  -10    0    2    6    0.000177    0.000031
  -13  -10    0    3    6    0.000104   -0.000145
  -13  -10    0    4    6   -0.000038    0.000189
  -13  -10    0    5    6    0.000022   -0.000038
  -13  -10    0    6    6    0.000000    0.000003
  -13  -10    0    7    6   -0.000033   -0.000001
  -13  -10    0    8    6    0.000009    0.000073
  -13  -10    0    9    6   -0.000004   -0.000024
  -13  -10    0   10    6   -0.000034    0.000013
  -13  -10    0   11    6   -0.000020   -0.000019
  -13  -10    0    1    7    0.000154    0.000025
  -13  -10    0    2    7   -0.000006   -0.000024
  -13  -10    0    3    7   -0.000161    0.000040
  -13  -10    0    4    7    0.000174   -0.000172
  -13  -10    0    5    7   -0.000059   -0.000042
  -13  -10    0    6    7    0.000005   -0.000012
  -13  -10    0    7    7    0.000020   -0.000029
  -13  -10    0    8    7    0.000055   -0.000115
  -13  -10    0    9    7   -0.000092   -0.000013
  -13  -10    0   10    7    0.000021   -0.000059
  -13  -10    0   11    7    0.000006   -0.000002
  -13  -10    0    1    8   -0.000085    0.000010
  -13  -10    0    2    8   -0.000097    0.000042
  -13  -10    0    3    8   -0.000098   -0.000047
  -13  -10    0    4    8   -0.000268    0.000026
  -13  -10    0    5    8    0.000050   -0.000028
  -13  -10    0    6    8   -0.000059   -0.000021
  -13  -10    0    7    8   -0.000003   -0.000028
  -13  -10    0    8    8   -0.000015    0.000042
  -13  -10    0    9    8   -0.000019    0.000111
  -13  -10    0   10    8   -0.000024    0.000047
  -13  -10    0   11    8    0.000051    0.000007
  -13  -10    0    1    9   -0.000015   -0.000080
  -13  -10    0    2    9   -0.000113   -0.000146
  -13  -10    0    3    9    0.000105   -0.000026
  -13  -10    0    4    9   -0.000038   -0.000075
  -13  -10    0    5    9    0.000036   -0.000028
  -13  -10    0    6    9    0.000084    0.000002
  -13  -10    0    7    9   -0.000003    0.000018
  -13  -10    0    8    9    0.000005    0.000157
  -13  -10    0    9    9    0.000082   -0.000125
  -13  -10    0   10    9   -0.000005   -0.000058
  -13  -10    0   11    9   -0.000027    0.000018
  -13  -10    0    1   10   -0.000025   -0.000110
  -13  -10    0    2   10   -0.000125    0.000058
  -13  -10    0    3   10   -0.000093   -0.000003
  -13  -10    0    4   10    0.000087    0.000011
  -13  -10    0    5   10    0.000097   -0.000169
  -13  -10    0    6   10    0.000020    0.000012
  -13  -10    0    7   10   -0.000026   -0.000010
  -13  -10    0    8   10    0.000096    0.000017
  -13  -10    0    9   10    0.000004   -0.000091
  -13  -10    0   10   10    0.000005   -0.000022
  -13  -10    0   11   10    0.000060   -0.000035
  -13  -10    0    1   11    0.000160   -0.000046
  -13  -10    0    2   11    0.000031    0.000021
  -13  -10    0    3   11   -0.000128   -0.000011
  -13  -10    0    4   11   -0.000179   -0.000027
  -13  -10    0    5   11   -0.000066    0.000027
  -13  -10    0    6   11    0.000018    0.000001
  -13  -10    0    7   11   -0.000007    0.000007
  -13  -10    0    8   11   -0.000053   -0.000126
  -13  -10    0    9   11   -0.000086    0.000006
  -13  -10    0   10   11   -0.000011    0.000025
  -13  -10    0   11   11    0.000010    0.000006
  -13   -9    0    1    1   -0.000222    0.000128
  -13   -9    0    2    1    0.000141    0.000026
  -13   -9    0    3    1   -0.000127   -0.000086
  -13   -9    0    4    1   -0.000277    0.000045
  -13   -9    0    5    1    0.000020    0.000041
  -13   -9    0    6    1    0.000112    0.000176
  -13   -9    0    7    1    0.000062   -0.000292
  -13   -9    0    8    1    0.000011    0.000001
  -13   -9    0    9    1   -0.000070   -0.000001
  -13   -9    0   10    1    0.000118    0.000125
  -13   -9    0   11    1    0.000030   -0.000017
  -13   -9    0    1    2    0.000055   -0.000080
  -13   -9    0    2    2    0.000104    0.000151
  -13   -9    0    3    2    0.000206   -0.000292
  -13   -9    0    4    2    0.000007   -0.000133
  -13   -9    0    5    2   -0.000039   -0.000146
  -13   -9    0    6    2    0.000117   -0.000056
  -13   -9    0    7    2   -0.000006    0.000075
  -13   -9    0    8    2    0.000080    0.000154
  -13   -9    0    9    2    0.000062    0.000092
  -13   -9    0   10    2   -0.000125    0.000041
  -13   -9    0   11    2   -0.000029   -0.000014
  -13   -9    0    1    3    0.000031    0.000080
  -13   -9    0    2    3    0.000142    0.000100
  -13   -9    0    3    3    0.000076   -0.000104
  -13   -9    0    4    3   -0.000163    0.000044
  -13   -9    0    5    3    0.000091    0.000131
  -13   -9    0    6    3   -0.000069   -0.000040
  -13   -9    0    7    3   -0.000203    0.000051
  -13   -9    0    8    3    0.000143    0.000036
  -13   -9    0    9    3   -0.000001   -0.000106
  -13   -9    0   10    3   -0.000050   -0.000008
  -13   -9    0   11    3   -0.000092    0.000092
  -13   -9    0    1    4    0.000005   -0.000163
  -13   -9    0    2    4   -0.000001   -0.000078
  -13   -9    0    3    4   -0.000048    0.000074
  -13   -9    0    4    4    0.000034   -0.000148
  -13   -9    0    5    4   -0.000054   -0.000175
  -13   -9    0    6    4    0.000091   -0.000002
  -13   -9    0    7    4   -0.000058   -0.000068
  -13   -9    0    8    4    0.000003   -0.000020
  -13   -9    0    9    4   -0.000116    0.000077
  -13   -9    0   10    4    0.000028   -0.000046
  -13   -9    0   11    4   -0.000048    0.000182
  -13   -9    0    1    5    0.000149   -0.000090
  -13   -9    0    2    5   -0.000090    0.000060
  -13   -9    0    3    5    0.000162    0.000163
  -13   -9    0    4    5   -0.000255   -0.000034
  -13   -9    0    5    5    0.000029   -0.000063
  -13   -9    0    6    5   -0.000042   -0.000097
  -13   -9    0    7    5   -0.000065    0.000013
  -13   -9    0    8    5   -0.000043    0.000028
  -13   -9    0    9    5   -0.000046    0.000054
  -13   -9    0   10    5   -0.000019    0.000066
  -13   -9    0   11    5   -0.000032   -0.000094
  -13   -9    0    1    6   -0.000027    0.000280
  -13   -9    0    2    6   -0.000173    0.000322
  -13   -9    0    3    6    0.000217   -0.000258
  -13   -9    0    4    6   -0.000320    0.000128
  -13   -9    0    5    6    0.000013   -0.000012
  -13   -9    0    6    6   -0.000011   -0.000011
  -13   -9    0    7    6   -0.000001    0.000019
  -13   -9    0    8    6   -0.000094   -0.000023
  -13   -9    0    9    6    0.000062    0.000033
  -13   -9    0   10    6   -0.000006    0.000006
  -13   -9    0   11    6   -0.000012   -0.000009
  -13   -9    0    1    7   -0.000262   -0.000009
  -13   -9    0    2    7    0.000101    0.000062
  -13   -9    0    3    7    0.000009   -0.000223
  -13   -9    0    4    7    0.000340   -0.000042
  -13   -9    0    5    7    0.000003   -0.000082
  -13   -9    0    6    7    0.000020   -0.000003
  -13   -9    0    7    7    0.000002    0.000008
  -13   -9    0    8    7   -0.000020    0.000019
  -13   -9    0    9    7    0.000007    0.000014
  -13   -9    0   10    7   -0.000014   -0.000027
  -13   -9    0   11    7    0.000004    0.000019
  -13   -9    0    1    8   -0.000097   -0.000001
  -13   -9    0    2    8   -0.000131    0.000176
  -13   -9    0    3    8    0.000012   -0.000128
  -13   -9    0    4    8    0.000208   -0.000077
  -13   -9    0    5    8    0.000065    0.000039
  -13   -9    0    6    8    0.000013    0.000013
  -13   -9    0    7    8   -0.000011    0.000095
  -13   -9    0    8    8    0.000021   -0.000020
  -13   -9    0    9    8    0.000068   -0.000080
  -13   -9    0   10    8    0.000087    0.000051
  -13   -9    0   11    8   -0.000161    0.000054
  -13   -9    0    1    9   -0.000040   -0.000015
  -13   -9    0    2    9    0.000260    0.000242
  -13   -9    0    3    9    0.000003   -0.000110
  -13   -9    0    4    9    0.000069   -0.000088
  -13   -9    0    5    9   -0.000053   -0.000029
  -13   -9    0    6    9    0.000004    0.000074
  -13   -9    0    7    9    0.000013   -0.000046
  -13   -9    0    8    9   -0.000071   -0.000007
  -13   -9    0    9    9   -0.000063    0.000080
  -13   -9    0   10    9   -0.000060   -0.000022
  -13   -9    0   11    9    0.000136   -0.000132
  -13   -9    0    1   10    0.000015    0.000065
  -13   -9    0    2   10    0.000049   -0.000171
  -13   -9    0    3   10   -0.000077    0.000081
  -13   -9    0    4   10   -0.000007   -0.000021
  -13   -9    0    5   10    0.000008    0.000218
  -13   -9    0    6   10   -0.000008    0.000017
  -13   -9    0    7   10   -0.000012   -0.000022
  -13   -9    0    8   10    0.000003   -0.000130
  -13   -9    0    9   10   -0.000111   -0.000013
  -13   -9    0   10   10    0.000007    0.000013
  -13   -9    0   11   10   -0.000039    0.000022
  -13   -9    0    1   11    0.000116   -0.000058
  -13   -9    0    2   11    0.000114   -0.000184
  -13   -9    0    3   11   -0.000168   -0.000047
  -13   -9    0    4   11   -0.000010    0.000050
  -13   -9    0    5   11    0.000061    0.000049
  -13   -9    0    6   11   -0.000010    0.000016
  -13   -9    0    7   11    0.000020    0.000015
  -13   -9    0    8   11    0.000012    0.000004
  -13   -9    0    9   11   -0.000006    0.000049
  -13   -9    0   10   11   -0.000005   -0.000006
  -13   -9    0   11   11    0.000028   -0.000035
  -13   -8    0    1    1    0.000129    0.000130
  -13   -8    0    2    1   -0.000067   -0.000076
  -13   -8    0    3    1   -0.000139   -0.000073
  -13   -8    0    4    1   -0.000140   -0.000159
  -13   -8    0    5    1   -0.000119    0.000013
  -13   -8    0    6    1   -0.000074    0.000254
  -13   -8    0    7    1    0.000277   -0.000118
  -13   -8    0    8    1    0.000075   -0.000026
  -13   -8    0    9    1   -0.000065   -0.000121
  -13   -8    0   10    1   -0.000108    0.000105
  -13   -8    0   11    1   -0.000086   -0.000025
  -13   -8    0    1    2   -0.000095    0.000078
  -13   -8    0    2    2   -0.000244    0.000144
  -13   -8    0    3    2    0.000023   -0.000087
  -13   -8    0    4    2    0.000078    0.000018
  -13   -8    0    5    2    0.000104   -0.000144
  -13   -8    0    6    2    0.000088    0.000140
  -13   -8    0    7    2   -0.000035   -0.000010
  -13   -8    0    8    2   -0.000009    0.000024
  -13   -8    0    9    2   -0.000147    0.000073
  -13   -8    0   10    2   -0.000013   -0.000009
  -13   -8    0   11    2   -0.000100   -0.000063
  -13   -8    0    1    3   -0.000013    0.000130
  -13   -8    0    2    3   -0.000080   -0.000056
  -13   -8    0    3    3   -0.000038   -0.000142
  -13   -8    0    4    3    0.000107   -0.000031
  -13   -8    0    5    3    0.000042    0.000173
  -13   -8    0    6    3    0.000007   -0.000106
  -13   -8    0    7    3    0.000025   -0.000228
  -13   -8    0    8    3   -0.000038    0.000049
  -13   -8    0    9    3   -0.000061   -0.000097
  -13   -8    0   10    3   -0.000039    0.000067
  -13   -8    0   11    3   -0.000023   -0.000203
  -13   -8    0    1    4    0.000200    0.000055
  -13   -8    0    2    4    0.000047   -0.000136
  -13   -8    0    3    4    0.000155    0.000034
  -13   -8    0    4    4    0.000143   -0.000122
  -13   -8    0    5    4    0.000084   -0.000107
  -13   -8    0    6    4    0.000143    0.000131
  -13   -8    0    7    4   -0.000117   -0.000023
  -13   -8    0    8    4    0.000044   -0.000125
  -13   -8    0    9    4   -0.000208   -0.000089
  -13   -8    0   10    4    0.000068    0.000166
  -13   -8    0   11    4   -0.000086    0.000020
  -13   -8    0    1    5   -0.000092    0.000206
  -13   -8    0    2    5    0.000038    0.000078
  -13   -8    0    3    5   -0.000082    0.000033
  -13   -8    0    4    5    0.000072   -0.000105
  -13   -8    0    5    5    0.000005    0.000090
  -13   -8    0    6    5   -0.000015   -0.000022
  -13   -8    0    7    5    0.000013    0.000070
  -13   -8    0    8    5   -0.000034    0.000035
  -13   -8    0    9    5   -0.000089   -0.000062
  -13   -8    0   10    5    0.000028   -0.000059
  -13   -8    0   11    5   -0.000008    0.000055
  -13   -8    0    1    6   -0.000148    0.000119
  -13   -8    0    2    6   -0.000132    0.000151
  -13   -8    0    3    6    0.000101   -0.000093
  -13   -8    0    4    6   -0.000128   -0.000017
  -13   -8    0    5    6   -0.000016    0.000003
  -13   -8    0    6    6    0.000003   -0.000012
  -13   -8    0    7    6   -0.000022    0.000023
  -13   -8    0    8    6    0.000107    0.000065
  -13   -8    0    9    6   -0.000055   -0.000016
  -13   -8    0   10    6   -0.000009   -0.000033
  -13   -8    0   11    6   -0.000012    0.000006
  -13   -8    0    1    7   -0.000036   -0.000073
  -13   -8    0    2    7    0.000067    0.000147
  -13   -8    0    3    7    0.000193    0.000104
  -13   -8    0    4    7    0.000205    0.000041
  -13   -8    0    5    7   -0.000173    0.000112
  -13   -8    0    6    7   -0.000019    0.000016
  -13   -8    0    7    7   -0.000029    0.000001
  -13   -8    0    8    7   -0.000102   -0.000079
  -13   -8    0    9    7   -0.000064    0.000051
  -13   -8    0   10    7   -0.000005    0.000003
  -13   -8    0   11    7   -0.000009   -0.000037
  -13   -8    0    1    8   -0.000009   -0.000026
  -13   -8    0    2    8    0.000016    0.000325
  -13   -8    0    3    8    0.000037    0.000036
  -13   -8    0    4    8    0.000228    0.000346
  -13   -8    0    5    8   -0.000024   -0.000080
  -13   -8    0    6    8   -0.000050    0.000009
  -13   -8    0    7    8    0.000034   -0.000014
  -13   -8    0    8    8    0.000053   -0.000011
  -13   -8    0    9    8    0.000005    0.000081
  -13   -8    0   10    8    0.000026   -0.000074
  -13   -8    0   11    8    0.000159    0.000039
  -13   -8    0    1    9    0.000038    0.000113
  -13   -8    0    2    9   -0.000135    0.000273
  -13   -8    0    3    9   -0.000168   -0.000068
  -13   -8    0    4    9   -0.000108   -0.000020
  -13   -8    0    5    9    0.000032   -0.000045
  -13   -8    0    6    9   -0.000039   -0.000031
  -13   -8    0    7    9    0.000003    0.000015
  -13   -8    0    8    9    0.000137    0.000036
  -13   -8    0    9    9    0.000002   -0.000107
  -13   -8    0   10    9    0.000059   -0.000028
  -13   -8    0   11    9   -0.000062    0.000044
  -13   -8    0    1   10   -0.000137    0.000064
  -13   -8    0    2   10    0.000108   -0.000033
  -13   -8    0    3   10    0.000013    0.000066
  -13   -8    0    4   10   -0.000056   -0.000194
  -13   -8    0    5   10   -0.000079   -0.000155
  -13   -8    0    6   10    0.000021    0.000002
  -13   -8    0    7   10   -0.000006    0.000031
  -13   -8    0    8   10    0.000045   -0.000060
  -13   -8    0    9   10    0.000009   -0.000063
  -13   -8    0   10   10   -0.000007    0.000013
  -13   -8    0   11   10    0.000005    0.000001
  -13   -8    0    1   11   -0.000068   -0.000057
  -13   -8    0    2   11    0.000127   -0.000143
  -13   -8    0    3   11   -0.000048    0.000221
  -13   -8    0    4   11   -0.000081    0.000025
  -13   -8    0    5   11    0.000029   -0.000056
  -13   -8    0    6   11   -0.000052    0.000044
  -13   -8    0    7   11    0.000016    0.000003
  -13   -8    0    8   11   -0.000154    0.000003
  -13   -8    0    9   11   -0.000008    0.000092
  -13   -8    0   10   11    0.000029    0.000004
  -13   -8    0   11   11   -0.000014    0.000017
  -13   -7    0    1    1    0.000182    0.000094
  -13   -7    0    2    1    0.000119   -0.000093
  -13   -7    0    3    1   -0.000134   -0.000007
  -13   -7    0    4    1    0.000110    0.000059
  -13   -7    0    5    1   -0.000027    0.000007
  -13   -7    0    6    1    0.000072   -0.000023
  -13   -7    0    7    1   -0.000252    0.000032
  -13   -7    0    8    1   -0.000072   -0.000022
  -13   -7    0    9    1   -0.000061   -0.000099
  -13   -7    0   10    1   -0.000022   -0.000061
  -13   -7    0   11    1   -0.000140   -0.000113
  -13   -7    0    1    2    0.000041    0.000016
  -13   -7    0    2    2   -0.000135   -0.000155
  -13   -7    0    3    2   -0.000165   -0.000261
  -13   -7    0    4    2   -0.000002    0.000115
  -13   -7    0    5    2    0.000005   -0.000014
  -13   -7    0    6    2   -0.000261   -0.000140
  -13   -7    0    7    2    0.000082   -0.000131
  -13   -7    0    8    2    0.000080   -0.000253
  -13   -7    0    9    2    0.000156   -0.000316
  -13   -7    0   10    2    0.000178    0.000131
  -13   -7    0   11    2    0.000079    0.000128
  -13   -7    0    1    3    0.000003    0.000120
  -13   -7    0    2    3    0.000104    0.000120
  -13   -7    0    3    3   -0.000142    0.000003
  -13   -7    0    4    3    0.000080    0.000060
  -13   -7    0    5    3   -0.000173   -0.000125
  -13   -7    0    6    3    0.000181    0.000011
  -13   -7    0    7    3    0.000274    0.000090
  -13   -7    0    8    3    0.000157   -0.000037
  -13   -7    0    9    3   -0.000333    0.000015
  -13   -7    0   10    3   -0.000004    0.000057
  -13   -7    0   11    3   -0.000098   -0.000116
  -13   -7    0    1    4   -0.000123    0.000011
  -13   -7    0    2    4    0.000103   -0.000038
  -13   -7    0    3    4    0.000029    0.000052
  -13   -7    0    4    4    0.000087    0.000075
  -13   -7    0    5    4   -0.000102   -0.000059
  -13   -7    0    6    4   -0.000089    0.000106
  -13   -7    0    7    4    0.000090   -0.000017
  -13   -7    0    8    4    0.000119   -0.000134
  -13   -7    0    9    4    0.000033    0.000197
  -13   -7    0   10    4   -0.000010    0.000141
  -13   -7    0   11    4    0.000043   -0.000096
  -13   -7    0    1    5   -0.000019   -0.000242
  -13   -7    0    2    5    0.000185    0.000103
  -13   -7    0    3    5   -0.000043   -0.000219
  -13   -7    0    4    5   -0.000092    0.000272
  -13   -7    0    5    5   -0.000040   -0.000073
  -13   -7    0    6    5   -0.000112   -0.000043
  -13   -7    0    7    5    0.000060    0.000072
  -13   -7    0    8    5   -0.000035    0.000089
  -13   -7    0    9    5    0.000002    0.000107
  -13   -7    0   10    5    0.000134    0.000118
  -13   -7    0   11    5   -0.000078   -0.000042
  -13   -7    0    1    6   -0.000085   -0.000337
  -13   -7    0    2    6   -0.000035    0.000098
  -13   -7    0    3    6   -0.000161    0.000207
  -13   -7    0    4    6   -0.000046   -0.000188
  -13   -7    0    5    6    0.000062   -0.000007
  -13   -7    0    6    6    0.000002    0.000004
  -13   -7    0    7    6    0.000012   -0.000021
  -13   -7    0    8    6   -0.000031    0.000073
  -13   -7    0    9    6   -0.000069    0.000023
  -13   -7    0   10    6    0.000016    0.000025
  -13   -7    0   11    6   -0.000031   -0.000021
  -13   -7    0    1    7    0.000119    0.000051
  -13   -7    0    2    7    0.000072    0.000018
  -13   -7    0    3    7    0.000078    0.000103
  -13   -7    0    4    7    0.000046    0.000232
  -13   -7    0    5    7   -0.000013    0.000017
  -13   -7    0    6    7    0.000003    0.000002
  -13   -7    0    7    7    0.000018   -0.000025
  -13   -7    0    8    7   -0.000004    0.000082
  -13   -7    0    9    7    0.000025    0.000007
  -13   -7    0   10    7    0.000015    0.000024
  -13   -7    0   11    7    0.000005   -0.000008
  -13   -7    0    1    8    0.000122    0.000017
  -13   -7    0    2    8   -0.000051   -0.000017
  -13   -7    0    3    8   -0.000118    0.000012
  -13   -7    0    4    8    0.000082   -0.000007
  -13   -7    0    5    8   -0.000016    0.000021
  -13   -7    0    6    8    0.000039   -0.000072
  -13   -7    0    7    8    0.000047    0.000022
  -13   -7    0    8    8   -0.000071   -0.000074
  -13   -7    0    9    8   -0.000069   -0.000077
  -13   -7    0   10    8    0.000108   -0.000059
  -13   -7    0   11    8   -0.000001    0.000129
[...]
   14    9    0    9    8   -0.000059    0.000034
   14    9    0   10    8    0.000088    0.000001
   14    9    0   11    8    0.000055    0.000068
   14    9    0    1    9    0.000007   -0.000058
   14    9    0    2    9   -0.000189   -0.000002
   14    9    0    3    9    0.000045   -0.000117
   14    9    0    4    9    0.000055    0.000010
   14    9    0    5    9   -0.000030   -0.000038
   14    9    0    6    9   -0.000013   -0.000001
   14    9    0    7    9   -0.000040   -0.000027
   14    9    0    8    9   -0.000063    0.000068
   14    9    0    9    9    0.000128   -0.000009
   14    9    0   10    9    0.000031    0.000066
   14    9    0   11    9   -0.000067    0.000039
   14    9    0    1   10   -0.000135    0.000008
   14    9    0    2   10    0.000007    0.000069
   14    9    0    3   10    0.000004    0.000067
   14    9    0    4   10    0.000010    0.000009
   14    9    0    5   10   -0.000050   -0.000012
   14    9    0    6   10   -0.000004   -0.000004
   14    9    0    7   10    0.000061    0.000010
   14    9    0    8   10   -0.000094   -0.000003
   14    9    0    9   10    0.000062   -0.000032
   14    9    0   10   10   -0.000028   -0.000009
   14    9    0   11   10   -0.000009   -0.000001
   14    9    0    1   11    0.000020   -0.000061
   14    9    0    2   11    0.000009    0.000033
   14    9    0    3   11    0.000065    0.000069
   14    9    0    4   11   -0.000090   -0.000023
   14    9    0    5   11    0.000065    0.000048
   14    9    0    6   11    0.000013    0.000019
   14    9    0    7   11    0.000001   -0.000012
   14    9    0    8   11   -0.000008    0.000067
   14    9    0    9   11   -0.000016   -0.000093
   14    9    0   10   11    0.000006   -0.000014
   14    9    0   11   11    0.000001   -0.000038
   15    6    0    1    1   -0.000286   -0.000013
   15    6    0    2    1    0.000122    0.000195
   15    6    0    3    1    0.000047   -0.000109
   15    6    0    4    1   -0.000112    0.000084
   15    6    0    5    1    0.000169   -0.000033
   15    6    0    6    1   -0.000487    0.000098
   15    6    0    7    1    0.000084    0.000444
   15    6    0    8    1   -0.000164    0.000022
   15    6    0    9    1    0.000191    0.000053
   15    6    0   10    1   -0.000142   -0.000064
   15    6    0   11    1    0.000035   -0.000230
   15    6    0    1    2    0.000248   -0.000014
   15    6    0    2    2   -0.000086    0.000088
   15    6    0    3    2    0.000296   -0.000160
   15    6    0    4    2    0.000057    0.000092
   15    6    0    5    2    0.000134   -0.000032
   15    6    0    6    2   -0.000205    0.000180
   15    6    0    7    2   -0.000020    0.000052
   15    6    0    8    2   -0.000216    0.000117
   15    6    0    9    2    0.000039   -0.000211
   15    6    0   10    2    0.000125   -0.000051
   15    6    0   11    2    0.000200   -0.000083
   15    6    0    1    3   -0.000056    0.000075
   15    6    0    2    3    0.000114    0.000089
   15    6    0    3    3    0.000159   -0.000080
   15    6    0    4    3   -0.000187   -0.000133
   15    6    0    5    3   -0.000055   -0.000025
   15    6    0    6    3    0.000273   -0.000297
   15    6    0    7    3    0.000339   -0.000093
   15    6    0    8    3   -0.000092    0.000280
   15    6    0    9    3    0.000295    0.000023
   15    6    0   10    3   -0.000026    0.000073
   15    6    0   11    3    0.000074    0.000182
   15    6    0    1    4   -0.000012    0.000183
   15    6    0    2    4    0.000129   -0.000023
   15    6    0    3    4   -0.000191    0.000001
   15    6    0    4    4    0.000188   -0.000054
   15    6    0    5    4   -0.000074    0.000057
   15    6    0    6    4   -0.000151    0.000389
   15    6    0    7    4    0.000176   -0.000200
   15    6    0    8    4    0.000150    0.000145
   15    6    0    9    4    0.000187   -0.000076
   15    6    0   10    4    0.000144    0.000056
   15    6    0   11    4   -0.000218   -0.000121
   15    6    0    1    5   -0.000081    0.000001
   15    6    0    2    5   -0.000037    0.000010
   15    6    0    3    5   -0.000106    0.000075
   15    6    0    4    5   -0.000005   -0.000030
   15    6    0    5    5    0.000049    0.000020
   15    6    0    6    5   -0.000026    0.000065
   15    6    0    7    5    0.000225   -0.000060
   15    6    0    8    5   -0.000013    0.000035
   15    6    0    9    5   -0.000044    0.000086
   15    6    0   10    5   -0.000179   -0.000094
   15    6    0   11    5   -0.000176   -0.000045
   15    6    0    1    6    0.000030    0.000116
   15    6    0    2    6   -0.000351    0.000111
   15    6    0    3    6    0.000128    0.000112
   15    6    0    4    6   -0.000221   -0.000064
   15    6    0    5    6    0.000110   -0.000038
   15    6    0    6    6   -0.000001   -0.000018
   15    6    0    7    6   -0.000007   -0.000006
   15    6    0    8    6    0.000071   -0.000031
   15    6    0    9    6    0.000041    0.000017
   15    6    0   10    6   -0.000016   -0.000004
   15    6    0   11    6   -0.000016   -0.000023
   15    6    0    1    7   -0.000246   -0.000053
   15    6    0    2    7   -0.000018    0.000093
   15    6    0    3    7    0.000019   -0.000207
   15    6    0    4    7    0.000238    0.000278
   15    6    0    5    7    0.000028    0.000007
   15    6    0    6    7    0.000007    0.000016
   15    6    0    7    7   -0.000002    0.000008
   15    6    0    8    7   -0.000099    0.000046
   15    6    0    9    7    0.000047    0.000008
   15    6    0   10    7   -0.000005    0.000011
   15    6    0   11    7   -0.000025   -0.000015
   15    6    0    1    8   -0.000029   -0.000242
   15    6    0    2    8   -0.000181    0.000017
   15    6    0    3    8    0.000282   -0.000025
   15    6    0    4    8    0.000254    0.000114
   15    6    0    5    8    0.000136    0.000082
   15    6    0    6    8    0.000008    0.000072
   15    6    0    7    8   -0.000018   -0.000098
   15    6    0    8    8    0.000039   -0.000034
   15    6    0    9    8    0.000028    0.000124
   15    6    0   10    8    0.000061   -0.000017
   15    6    0   11    8    0.000116   -0.000026
   15    6    0    1    9   -0.000043   -0.000003
   15    6    0    2    9   -0.000003    0.000174
   15    6    0    3    9    0.000084   -0.000046
   15    6    0    4    9    0.000057    0.000057
   15    6    0    5    9    0.000010   -0.000102
   15    6    0    6    9   -0.000048    0.000059
   15    6    0    7    9    0.000090   -0.000029
   15    6    0    8    9    0.000073    0.000021
   15    6    0    9    9   -0.000112    0.000055
   15    6    0   10    9   -0.000004    0.000058
   15    6    0   11    9    0.000003    0.000022
   15    6    0    1   10    0.000120    0.000037
   15    6    0    2   10    0.000123   -0.000046
   15    6    0    3   10   -0.000006    0.000011
   15    6    0    4   10    0.000023    0.000134
   15    6    0    5   10   -0.000068   -0.000027
   15    6    0    6   10    0.000000   -0.000013
   15    6    0    7   10    0.000010   -0.000021
   15    6    0    8   10   -0.000107   -0.000140
   15    6    0    9   10    0.000125    0.000114
   15    6    0   10   10    0.000018    0.000027
   15    6    0   11   10    0.000033    0.000030
   15    6    0    1   11    0.000006    0.000089
   15    6    0    2   11    0.000218   -0.000047
   15    6    0    3   11   -0.000067   -0.000307
   15    6    0    4   11   -0.000000   -0.000072
   15    6    0    5   11    0.000035   -0.000010
   15    6    0    6   11    0.000026    0.000009
   15    6    0    7   11   -0.000008   -0.000019
   15    6    0    8   11    0.000003    0.000273
   15    6    0    9   11    0.000069   -0.000169
   15    6    0   10   11   -0.000027    0.000049
   15    6    0   11   11    0.000035    0.000001
   15    7    0    1    1    0.000101    0.000139
   15    7    0    2    1   -0.000018    0.000001
   15    7    0    3    1    0.000090   -0.000011
   15    7    0    4    1   -0.000005   -0.000217
   15    7    0    5    1   -0.000158    0.000091
   15    7    0    6    1   -0.000360    0.000025
   15    7    0    7    1    0.000143    0.000237
   15    7    0    8    1    0.000042    0.000071
   15    7    0    9    1    0.000008    0.000040
   15    7    0   10    1   -0.000012   -0.000066
   15    7    0   11    1    0.000127   -0.000211
   15    7    0    1    2   -0.000022    0.000098
   15    7    0    2    2   -0.000215   -0.000082
   15    7    0    3    2    0.000085    0.000080
   15    7    0    4    2    0.000058    0.000089
   15    7    0    5    2    0.000167    0.000075
   15    7    0    6    2    0.000020    0.000040
   15    7    0    7    2    0.000020    0.000054
   15    7    0    8    2   -0.000156   -0.000073
   15    7    0    9    2    0.000059    0.000210
   15    7    0   10    2   -0.000058   -0.000017
   15    7    0   11    2    0.000049   -0.000039
   15    7    0    1    3   -0.000031   -0.000086
   15    7    0    2    3   -0.000228   -0.000140
   15    7    0    3    3    0.000014   -0.000107
   15    7    0    4    3    0.000102   -0.000001
   15    7    0    5    3   -0.000237    0.000093
   15    7    0    6    3    0.000187   -0.000219
   15    7    0    7    3    0.000169   -0.000042
   15    7    0    8    3   -0.000052   -0.000082
   15    7    0    9    3    0.000103   -0.000042
   15    7    0   10    3    0.000043    0.000077
   15    7    0   11    3    0.000193    0.000096
   15    7    0    1    4    0.000142    0.000143
   15    7    0    2    4    0.000139   -0.000042
   15    7    0    3    4    0.000052    0.000009
   15    7    0    4    4    0.000143    0.000081
   15    7    0    5    4    0.000198   -0.000162
   15    7    0    6    4   -0.000141    0.000132
   15    7    0    7    4    0.000239   -0.000014
   15    7    0    8    4   -0.000026    0.000061
   15    7    0    9    4   -0.000063   -0.000050
   15    7    0   10    4   -0.000081    0.000005
   15    7    0   11    4   -0.000219    0.000040
   15    7    0    1    5   -0.000057    0.000072
   15    7    0    2    5    0.000059   -0.000080
   15    7    0    3    5   -0.000226   -0.000090
   15    7    0    4    5   -0.000063   -0.000036
   15    7    0    5    5   -0.000071    0.000109
   15    7    0    6    5   -0.000020    0.000053
   15    7    0    7    5   -0.000028   -0.000014
   15    7    0    8    5   -0.000002    0.000022
   15    7    0    9    5   -0.000070    0.000007
   15    7    0   10    5    0.000189    0.000026
   15    7    0   11    5    0.000096    0.000036
   15    7    0    1    6   -0.000070    0.000074
   15    7    0    2    6   -0.000192   -0.000158
   15    7    0    3    6    0.000053    0.000183
   15    7    0    4    6    0.000067   -0.000072
   15    7    0    5    6   -0.000131   -0.000119
   15    7    0    6    6    0.000009    0.000017
   15    7    0    7    6   -0.000009   -0.000006
   15    7    0    8    6   -0.000003    0.000043
   15    7    0    9    6   -0.000030    0.000016
   15    7    0   10    6    0.000027   -0.000003
   15    7    0   11    6   -0.000038    0.000022
   15    7    0    1    7    0.000016   -0.000228
   15    7    0    2    7   -0.000074    0.000108
   15    7    0    3    7    0.000107    0.000246
   15    7    0    4    7    0.000036    0.000098
   15    7    0    5    7    0.000056    0.000040
   15    7    0    6    7    0.000009   -0.000006
   15    7    0    7    7   -0.000038   -0.000012
   15    7    0    8    7    0.000055   -0.000014
   15    7    0    9    7   -0.000118   -0.000027
   15    7    0   10    7    0.000005   -0.000006
   15    7    0   11    7   -0.000003    0.000019
   15    7    0    1    8   -0.000030   -0.000073
   15    7    0    2    8   -0.000197    0.000128
   15    7    0    3    8    0.000011    0.000184
   15    7    0    4    8   -0.000115    0.000255
   15    7    0    5    8    0.000049   -0.000135
   15    7    0    6    8   -0.000002   -0.000066
   15    7    0    7    8    0.000056   -0.000070
   15    7    0    8    8   -0.000104   -0.000069
   15    7    0    9    8   -0.000038   -0.000000
   15    7    0   10    8   -0.000172   -0.000182
   15    7    0   11    8    0.000101    0.000008
   15    7    0    1    9   -0.000139    0.000002
   15    7    0    2    9   -0.000291    0.000246
   15    7    0    3    9   -0.000037   -0.000294
   15    7    0    4    9    0.000148   -0.000089
   15    7    0    5    9    0.000073   -0.000107
   15    7    0    6    9    0.000022   -0.000030
   15    7    0    7    9    0.000045    0.000013
   15    7    0    8    9   -0.000099    0.000044
   15    7    0    9    9    0.000186   -0.000010
   15    7    0   10    9    0.000090   -0.000197
   15    7    0   11    9    0.000098    0.000102
   15    7    0    1   10   -0.000096   -0.000005
   15    7    0    2   10    0.000177    0.000150
   15    7    0    3   10    0.000028    0.000000
   15    7    0    4   10    0.000135   -0.000074
   15    7    0    5   10    0.000109   -0.000021
   15    7    0    6   10    0.000012    0.000017
   15    7    0    7   10    0.000035    0.000009
   15    7    0    8   10    0.000035    0.000182
   15    7    0    9   10   -0.000057   -0.000224
   15    7    0   10   10   -0.000021   -0.000045
   15    7    0   11   10   -0.000031    0.000021
   15    7    0    1   11   -0.000056   -0.000112
   15    7    0    2   11    0.000143    0.000029
   15    7    0    3   11   -0.000100   -0.000072
   15    7    0    4   11   -0.000090   -0.000022
   15    7    0    5   11   -0.000033   -0.000070
   15    7    0    6   11   -0.000045   -0.000018
   15    7    0    7   11   -0.000006    0.000055
   15    7    0    8   11    0.000022   -0.000084
   15    7    0    9   11   -0.000153    0.000193
   15    7    0   10   11    0.000027    0.000018
   15    7    0   11   11   -0.000003   -0.000020
   15    8    0    1    1    0.000117    0.000150
   15    8    0    2    1    0.000123   -0.000119
   15    8    0    3    1    0.000114   -0.000004
   15    8    0    4    1    0.000183    0.000181
   15    8    0    5    1    0.000103   -0.000203
   15    8    0    6    1   -0.000003   -0.000128
   15    8    0    7    1   -0.000139    0.000019
   15    8    0    8    1   -0.000043    0.000028
   15    8    0    9    1    0.000119   -0.000010
   15    8    0   10    1    0.000068   -0.000190
   15    8    0   11    1   -0.000000   -0.000093
   15    8    0    1    2   -0.000054   -0.000026
   15    8    0    2    2    0.000051   -0.000271
   15    8    0    3    2   -0.000059   -0.000119
   15    8    0    4    2   -0.000092    0.000104
   15    8    0    5    2    0.000097    0.000035
   15    8    0    6    2    0.000012   -0.000200
   15    8    0    7    2    0.000164    0.000005
   15    8    0    8    2    0.000331   -0.000049
   15    8    0    9    2    0.000208   -0.000212
   15    8    0   10    2   -0.000035    0.000157
   15    8    0   11    2   -0.000096    0.000128
   15    8    0    1    3   -0.000105   -0.000106
   15    8    0    2    3   -0.000048    0.000055
   15    8    0    3    3   -0.000136   -0.000020
   15    8    0    4    3    0.000051    0.000178
   15    8    0    5    3   -0.000015   -0.000118
   15    8    0    6    3    0.000002    0.000053
   15    8    0    7    3    0.000150    0.000223
   15    8    0    8    3    0.000095    0.000068
   15    8    0    9    3   -0.000047   -0.000231
   15    8    0   10    3    0.000091   -0.000005
   15    8    0   11    3    0.000269   -0.000020
   15    8    0    1    4   -0.000183   -0.000037
   15    8    0    2    4    0.000073    0.000085
   15    8    0    3    4    0.000036    0.000082
   15    8    0    4    4   -0.000073    0.000142
   15    8    0    5    4   -0.000052    0.000091
   15    8    0    6    4   -0.000111   -0.000117
   15    8    0    7    4    0.000122    0.000113
   15    8    0    8    4    0.000407    0.000096
   15    8    0    9    4   -0.000042   -0.000108
   15    8    0   10    4   -0.000194   -0.000053
   15    8    0   11    4    0.000091   -0.000061
   15    8    0    1    5    0.000007   -0.000167
   15    8    0    2    5   -0.000115    0.000143
   15    8    0    3    5    0.000232   -0.000050
   15    8    0    4    5   -0.000121    0.000138
   15    8    0    5    5    0.000091   -0.000115
   15    8    0    6    5   -0.000039   -0.000003
   15    8    0    7    5    0.000005   -0.000150
   15    8    0    8    5   -0.000109    0.000087
   15    8    0    9    5   -0.000052    0.000074
   15    8    0   10    5   -0.000150    0.000119
   15    8    0   11    5   -0.000056    0.000016
   15    8    0    1    6    0.000246   -0.000138
   15    8    0    2    6    0.000097    0.000070
   15    8    0    3    6   -0.000094    0.000033
   15    8    0    4    6    0.000145    0.000085
   15    8    0    5    6   -0.000010   -0.000012
   15    8    0    6    6   -0.000002   -0.000003
   15    8    0    7    6    0.000001    0.000032
   15    8    0    8    6   -0.000033   -0.000014
   15    8    0    9    6   -0.000040   -0.000045
   15    8    0   10    6   -0.000020    0.000003
   15    8    0   11    6   -0.000034   -0.000043
   15    8    0    1    7   -0.000068    0.000263
   15    8    0    2    7   -0.000001   -0.000002
   15    8    0    3    7   -0.000207    0.000105
   15    8    0    4    7   -0.000035   -0.000098
   15    8    0    5    7    0.000059   -0.000044
   15    8    0    6    7   -0.000005    0.000022
   15    8    0    7    7   -0.000001   -0.000029
   15    8    0    8    7    0.000003    0.000072
   15    8    0    9    7    0.000022    0.000008
   15    8    0   10    7   -0.000010    0.000032
   15    8    0   11    7    0.000027   -0.000007
   15    8    0    1    8   -0.000029    0.000099
   15    8    0    2    8   -0.000030    0.000005
   15    8    0    3    8    0.000030   -0.000066
   15    8    0    4    8   -0.000114    0.000012
   15    8    0    5    8    0.000041   -0.000032
   15    8    0    6    8    0.000097    0.000041
   15    8    0    7    8   -0.000127   -0.000009
   15    8    0    8    8   -0.000031    0.000046
   15    8    0    9    8    0.000106   -0.000016
   15    8    0   10    8   -0.000003    0.000057
   15    8    0   11    8   -0.000102   -0.000134
   15    8    0    1    9   -0.000130   -0.000026
   15    8    0    2    9    0.000027   -0.000114
   15    8    0    3    9   -0.000079   -0.000059
   15    8    0    4    9   -0.000051   -0.000145
   15    8    0    5    9   -0.000114   -0.000052
   15    8    0    6    9   -0.000028   -0.000040
   15    8    0    7    9   -0.000056   -0.000126
   15    8    0    8    9    0.000100   -0.000020
   15    8    0    9    9   -0.000048    0.000117
   15    8    0   10    9   -0.000172    0.000068
   15    8    0   11    9    0.000063   -0.000163
   15    8    0    1   10    0.000077   -0.000121
   15    8    0    2   10   -0.000009   -0.000035
   15    8    0    3   10    0.000073   -0.000014
   15    8    0    4   10    0.000197    0.000044
   15    8    0    5   10    0.000016    0.000054
   15    8    0    6   10    0.000017    0.000000
   15    8    0    7   10   -0.000039   -0.000011
   15    8    0    8   10   -0.000117    0.000060
   15    8    0    9   10   -0.000064    0.000143
   15    8    0   10   10    0.000042    0.000007
   15    8    0   11   10    0.000025   -0.000019
   15    8    0    1   11   -0.000042   -0.000077
   15    8    0    2   11   -0.000059   -0.000083
   15    8    0    3   11   -0.000220    0.000025
   15    8    0    4   11    0.000020   -0.000073
   15    8    0    5   11   -0.000016   -0.000014
   15    8    0    6   11    0.000013    0.000025
   15    8    0    7   11   -0.000024    0.000002
   15    8    0    8   11    0.000171    0.000100
   15    8    0    9   11    0.000013   -0.000050
   15    8    0   10   11   -0.000018   -0.000011
   15    8    0   11   11   -0.000008   -0.000023
