 
             +---------------------------------------------------+
             |                                                   |
             |                   WANNIER90                       |
             |                                                   |
             +---------------------------------------------------+
             |                                                   |
             |        Welcome to the Maximally-Localized         |
             |        Generalized Wannier Functions code         |
             |            http://www.wannier.org                 |
             |                                                   |
             |                                                   |
             |  Wannier90 Developer Group:                       |
             |    Giovanni Pizzi    (EPFL)                       |
             |    Valerio Vitale    (Cambridge)                  |
             |    David Vanderbilt  (Rutgers University)         |
             |    Nicola Marzari    (EPFL)                       |
             |    Ivo Souza         (Universidad del Pais Vasco) |
             |    Arash A. Mostofi  (Imperial College London)    |
             |    Jonathan R. Yates (University of Oxford)       |
             |                                                   |
             |  For the full list of Wannier90 3.x authors,      |
             |  please check the code documentation and the      |
             |  README on the GitHub page of the code            |
             |                                                   |
             |                                                   |
             |  Please cite                                      |
             |                                                   |
             |  [ref] "Wannier90 as a community code:            |
             |        new features and applications",            |
             |        G. Pizzi et al., J. Phys. Cond. Matt. 32,  |
             |        165902 (2020).                             |
             |        http://doi.org/10.1088/1361-648X/ab51ff    |
             |                                                   |
             |  in any publications arising from the use of      |
             |  this code. For the method please cite            |
             |                                                   |
             |  [ref] "Maximally Localized Generalised Wannier   |
             |         Functions for Composite Energy Bands"     |
             |         N. Marzari and D. Vanderbilt              |
             |         Phys. Rev. B 56 12847 (1997)              |
             |                                                   |
             |  [ref] "Maximally Localized Wannier Functions     |
             |         for Entangled Energy Bands"               |
             |         I. Souza, N. Marzari and D. Vanderbilt    |
             |         Phys. Rev. B 65 035109 (2001)             |
             |                                                   |
             |                                                   |
             | Copyright (c) 1996-2020                           |
             |        The Wannier90 Developer Group and          |
             |        individual contributors                    |
             |                                                   |
             |      Release: 3.1.0        5th March    2020      |
             |                                                   |
             | This program is free software; you can            |
             | redistribute it and/or modify it under the terms  |
             | of the GNU General Public License as published by |
             | the Free Software Foundation; either version 2 of |
             | the License, or (at your option) any later version|
             |                                                   |
             | This program is distributed in the hope that it   |
             | will be useful, but WITHOUT ANY WARRANTY; without |
             | even the implied warranty of MERCHANTABILITY or   |
             | FITNESS FOR A PARTICULAR PURPOSE. See the GNU     |
             | General Public License for more details.          |
             |                                                   |
             | You should have received a copy of the GNU General|
             | Public License along with this program; if not,   |
             | write to the Free Software Foundation, Inc.,      |
             | 675 Mass Ave, Cambridge, MA 02139, USA.           |
             |                                                   |
             +---------------------------------------------------+
             |    Execution started on 19Apr2022 at 15:51:44     |
             +---------------------------------------------------+
 
 ******************************************************************************
 * -> Using CODATA 2006 constant values                                       *
 *    (http://physics.nist.gov/cuu/Constants/index.html)                      *
 * -> Using Bohr value from CODATA                                            *
 ******************************************************************************
 

 Wannier90 is running in LIBRARY MODE

 Setting up k-point neighbours...

 
                                    ------
                                    SYSTEM
                                    ------
 
                              Lattice Vectors (Ang)
                    a_1     3.485483   0.000000   0.000000
                    a_2    -1.742742   3.018517   0.000000
                    a_3     0.000000   0.000000  14.068782
 
                   Unit Cell Volume:     148.01754  (Ang^3)
 
                        Reciprocal-Space Vectors (Ang^-1)
                    b_1     1.802673   1.040773   0.000000
                    b_2     0.000000   2.081547   0.000000
                    b_3     0.000000   0.000000   0.446605
  
 *----------------------------------------------------------------------------*
 |   Site       Fractional Coordinate          Cartesian Coordinate (Ang)     |
 +----------------------------------------------------------------------------+
 | Nb   1   0.00000   0.00000   0.50000   |    0.00000   0.00000   7.03439    |
 | Se   1   0.33333   0.66667   0.38020   |   -0.00000   2.01234   5.34897    |
 | Se   2   0.33333   0.66667   0.61980   |   -0.00000   2.01234   8.71981    |
 *----------------------------------------------------------------------------*
                                -----------
                                PROJECTIONS
                                -----------
  
 +----------------------------------------------------------------------------+
 |     Frac. Coord.   l mr  r        z-axis               x-axis          Z/a |
 +----------------------------------------------------------------------------+
 |  0.00  0.00  0.50  2  1  1  0.000  0.000  1.000  1.000  0.000  0.000   1.0 |
 |  0.00  0.00  0.50  2  2  1  0.000  0.000  1.000  1.000  0.000  0.000   1.0 |
 |  0.00  0.00  0.50  2  3  1  0.000  0.000  1.000  1.000  0.000  0.000   1.0 |
 |  0.00  0.00  0.50  2  4  1  0.000  0.000  1.000  1.000  0.000  0.000   1.0 |
 |  0.00  0.00  0.50  2  5  1  0.000  0.000  1.000  1.000  0.000  0.000   1.0 |
 |  0.33  0.67  0.38  1  1  1  0.000  0.000  1.000  1.000  0.000  0.000   1.0 |
 |  0.33  0.67  0.38  1  2  1  0.000  0.000  1.000  1.000  0.000  0.000   1.0 |
 |  0.33  0.67  0.38  1  3  1  0.000  0.000  1.000  1.000  0.000  0.000   1.0 |
 |  0.33  0.67  0.62  1  1  1  0.000  0.000  1.000  1.000  0.000  0.000   1.0 |
 |  0.33  0.67  0.62  1  2  1  0.000  0.000  1.000  1.000  0.000  0.000   1.0 |
 |  0.33  0.67  0.62  1  3  1  0.000  0.000  1.000  1.000  0.000  0.000   1.0 |
 +----------------------------------------------------------------------------+
  
                                ------------
                                K-POINT GRID
                                ------------
  
             Grid size = 24 x 24 x  1      Total points =  576
  
 *----------------------------------------------------------------------------*
 | k-point      Fractional Coordinate        Cartesian Coordinate (Ang^-1)    |
 +----------------------------------------------------------------------------+
 |     1    0.00000   0.00000   0.00000   |    0.00000   0.00000   0.00000    |
 |     2    0.00000   0.04167   0.00000   |    0.00000   0.08673   0.00000    |
 |     3    0.00000   0.08333   0.00000   |    0.00000   0.17346   0.00000    |
 |     4    0.00000   0.12500   0.00000   |    0.00000   0.26019   0.00000    |
 |     5    0.00000   0.16667   0.00000   |    0.00000   0.34692   0.00000    |
 |     6    0.00000   0.20833   0.00000   |    0.00000   0.43366   0.00000    |
 |     7    0.00000   0.25000   0.00000   |    0.00000   0.52039   0.00000    |
 |     8    0.00000   0.29167   0.00000   |    0.00000   0.60712   0.00000    |
 |     9    0.00000   0.33333   0.00000   |    0.00000   0.69385   0.00000    |
 |    10    0.00000   0.37500   0.00000   |    0.00000   0.78058   0.00000    |
 |    11    0.00000   0.41667   0.00000   |    0.00000   0.86731   0.00000    |
 |    12    0.00000   0.45833   0.00000   |    0.00000   0.95404   0.00000    |
 |    13    0.00000   0.50000   0.00000   |    0.00000   1.04077   0.00000    |
 |    14    0.00000   0.54167   0.00000   |    0.00000   1.12750   0.00000    |
 |    15    0.00000   0.58333   0.00000   |    0.00000   1.21424   0.00000    |
 |    16    0.00000   0.62500   0.00000   |    0.00000   1.30097   0.00000    |
 |    17    0.00000   0.66667   0.00000   |    0.00000   1.38770   0.00000    |
 |    18    0.00000   0.70833   0.00000   |    0.00000   1.47443   0.00000    |
 |    19    0.00000   0.75000   0.00000   |    0.00000   1.56116   0.00000    |
 |    20    0.00000   0.79167   0.00000   |    0.00000   1.64789   0.00000    |
 |    21    0.00000   0.83333   0.00000   |    0.00000   1.73462   0.00000    |
 |    22    0.00000   0.87500   0.00000   |    0.00000   1.82135   0.00000    |
 |    23    0.00000   0.91667   0.00000   |    0.00000   1.90808   0.00000    |
 |    24    0.00000   0.95833   0.00000   |    0.00000   1.99482   0.00000    |
 |    25    0.04167   0.00000   0.00000   |    0.07511   0.04337   0.00000    |
 |    26    0.04167   0.04167   0.00000   |    0.07511   0.13010   0.00000    |
 |    27    0.04167   0.08333   0.00000   |    0.07511   0.21683   0.00000    |
 |    28    0.04167   0.12500   0.00000   |    0.07511   0.30356   0.00000    |
 |    29    0.04167   0.16667   0.00000   |    0.07511   0.39029   0.00000    |
 |    30    0.04167   0.20833   0.00000   |    0.07511   0.47702   0.00000    |
 |    31    0.04167   0.25000   0.00000   |    0.07511   0.56375   0.00000    |
 |    32    0.04167   0.29167   0.00000   |    0.07511   0.65048   0.00000    |
 |    33    0.04167   0.33333   0.00000   |    0.07511   0.73721   0.00000    |
 |    34    0.04167   0.37500   0.00000   |    0.07511   0.82395   0.00000    |
 |    35    0.04167   0.41667   0.00000   |    0.07511   0.91068   0.00000    |
 |    36    0.04167   0.45833   0.00000   |    0.07511   0.99741   0.00000    |
 |    37    0.04167   0.50000   0.00000   |    0.07511   1.08414   0.00000    |
 |    38    0.04167   0.54167   0.00000   |    0.07511   1.17087   0.00000    |
 |    39    0.04167   0.58333   0.00000   |    0.07511   1.25760   0.00000    |
 |    40    0.04167   0.62500   0.00000   |    0.07511   1.34433   0.00000    |
 |    41    0.04167   0.66667   0.00000   |    0.07511   1.43106   0.00000    |
 |    42    0.04167   0.70833   0.00000   |    0.07511   1.51779   0.00000    |
 |    43    0.04167   0.75000   0.00000   |    0.07511   1.60453   0.00000    |
 |    44    0.04167   0.79167   0.00000   |    0.07511   1.69126   0.00000    |
 |    45    0.04167   0.83333   0.00000   |    0.07511   1.77799   0.00000    |
 |    46    0.04167   0.87500   0.00000   |    0.07511   1.86472   0.00000    |
 |    47    0.04167   0.91667   0.00000   |    0.07511   1.95145   0.00000    |
 |    48    0.04167   0.95833   0.00000   |    0.07511   2.03818   0.00000    |
 |    49    0.08333   0.00000   0.00000   |    0.15022   0.08673   0.00000    |
 |    50    0.08333   0.04167   0.00000   |    0.15022   0.17346   0.00000    |
 |    51    0.08333   0.08333   0.00000   |    0.15022   0.26019   0.00000    |
 |    52    0.08333   0.12500   0.00000   |    0.15022   0.34692   0.00000    |
 |    53    0.08333   0.16667   0.00000   |    0.15022   0.43366   0.00000    |
 |    54    0.08333   0.20833   0.00000   |    0.15022   0.52039   0.00000    |
 |    55    0.08333   0.25000   0.00000   |    0.15022   0.60712   0.00000    |
 |    56    0.08333   0.29167   0.00000   |    0.15022   0.69385   0.00000    |
 |    57    0.08333   0.33333   0.00000   |    0.15022   0.78058   0.00000    |
 |    58    0.08333   0.37500   0.00000   |    0.15022   0.86731   0.00000    |
 |    59    0.08333   0.41667   0.00000   |    0.15022   0.95404   0.00000    |
 |    60    0.08333   0.45833   0.00000   |    0.15022   1.04077   0.00000    |
 |    61    0.08333   0.50000   0.00000   |    0.15022   1.12750   0.00000    |
 |    62    0.08333   0.54167   0.00000   |    0.15022   1.21424   0.00000    |
 |    63    0.08333   0.58333   0.00000   |    0.15022   1.30097   0.00000    |
 |    64    0.08333   0.62500   0.00000   |    0.15022   1.38770   0.00000    |
 |    65    0.08333   0.66667   0.00000   |    0.15022   1.47443   0.00000    |
 |    66    0.08333   0.70833   0.00000   |    0.15022   1.56116   0.00000    |
 |    67    0.08333   0.75000   0.00000   |    0.15022   1.64789   0.00000    |
 |    68    0.08333   0.79167   0.00000   |    0.15022   1.73462   0.00000    |
 |    69    0.08333   0.83333   0.00000   |    0.15022   1.82135   0.00000    |
 |    70    0.08333   0.87500   0.00000   |    0.15022   1.90808   0.00000    |
 |    71    0.08333   0.91667   0.00000   |    0.15022   1.99482   0.00000    |
 |    72    0.08333   0.95833   0.00000   |    0.15022   2.08155   0.00000    |
 |    73    0.12500   0.00000   0.00000   |    0.22533   0.13010   0.00000    |
 |    74    0.12500   0.04167   0.00000   |    0.22533   0.21683   0.00000    |
 |    75    0.12500   0.08333   0.00000   |    0.22533   0.30356   0.00000    |
 |    76    0.12500   0.12500   0.00000   |    0.22533   0.39029   0.00000    |
 |    77    0.12500   0.16667   0.00000   |    0.22533   0.47702   0.00000    |
 |    78    0.12500   0.20833   0.00000   |    0.22533   0.56375   0.00000    |
 |    79    0.12500   0.25000   0.00000   |    0.22533   0.65048   0.00000    |
 |    80    0.12500   0.29167   0.00000   |    0.22533   0.73721   0.00000    |
 |    81    0.12500   0.33333   0.00000   |    0.22533   0.82395   0.00000    |
 |    82    0.12500   0.37500   0.00000   |    0.22533   0.91068   0.00000    |
 |    83    0.12500   0.41667   0.00000   |    0.22533   0.99741   0.00000    |
 |    84    0.12500   0.45833   0.00000   |    0.22533   1.08414   0.00000    |
 |    85    0.12500   0.50000   0.00000   |    0.22533   1.17087   0.00000    |
 |    86    0.12500   0.54167   0.00000   |    0.22533   1.25760   0.00000    |
 |    87    0.12500   0.58333   0.00000   |    0.22533   1.34433   0.00000    |
 |    88    0.12500   0.62500   0.00000   |    0.22533   1.43106   0.00000    |
 |    89    0.12500   0.66667   0.00000   |    0.22533   1.51779   0.00000    |
 |    90    0.12500   0.70833   0.00000   |    0.22533   1.60453   0.00000    |
 |    91    0.12500   0.75000   0.00000   |    0.22533   1.69126   0.00000    |
 |    92    0.12500   0.79167   0.00000   |    0.22533   1.77799   0.00000    |
 |    93    0.12500   0.83333   0.00000   |    0.22533   1.86472   0.00000    |
 |    94    0.12500   0.87500   0.00000   |    0.22533   1.95145   0.00000    |
 |    95    0.12500   0.91667   0.00000   |    0.22533   2.03818   0.00000    |
 |    96    0.12500   0.95833   0.00000   |    0.22533   2.12491   0.00000    |
 |    97    0.16667  -0.00000   0.00000   |    0.30045   0.17346   0.00000    |
 |    98    0.16667   0.04167   0.00000   |    0.30045   0.26019   0.00000    |
 |    99    0.16667   0.08333   0.00000   |    0.30045   0.34692   0.00000    |
 |   100    0.16667   0.12500   0.00000   |    0.30045   0.43366   0.00000    |
 |   101    0.16667   0.16667   0.00000   |    0.30045   0.52039   0.00000    |
 |   102    0.16667   0.20833   0.00000   |    0.30045   0.60712   0.00000    |
 |   103    0.16667   0.25000   0.00000   |    0.30045   0.69385   0.00000    |
 |   104    0.16667   0.29167   0.00000   |    0.30045   0.78058   0.00000    |
 |   105    0.16667   0.33333   0.00000   |    0.30045   0.86731   0.00000    |
 |   106    0.16667   0.37500   0.00000   |    0.30045   0.95404   0.00000    |
 |   107    0.16667   0.41667   0.00000   |    0.30045   1.04077   0.00000    |
 |   108    0.16667   0.45833   0.00000   |    0.30045   1.12750   0.00000    |
 |   109    0.16667   0.50000   0.00000   |    0.30045   1.21424   0.00000    |
 |   110    0.16667   0.54167   0.00000   |    0.30045   1.30097   0.00000    |
 |   111    0.16667   0.58333   0.00000   |    0.30045   1.38770   0.00000    |
 |   112    0.16667   0.62500   0.00000   |    0.30045   1.47443   0.00000    |
 |   113    0.16667   0.66667   0.00000   |    0.30045   1.56116   0.00000    |
 |   114    0.16667   0.70833   0.00000   |    0.30045   1.64789   0.00000    |
 |   115    0.16667   0.75000   0.00000   |    0.30045   1.73462   0.00000    |
 |   116    0.16667   0.79167   0.00000   |    0.30045   1.82135   0.00000    |
 |   117    0.16667   0.83333   0.00000   |    0.30045   1.90808   0.00000    |
 |   118    0.16667   0.87500   0.00000   |    0.30045   1.99482   0.00000    |
 |   119    0.16667   0.91667   0.00000   |    0.30045   2.08155   0.00000    |
 |   120    0.16667   0.95833   0.00000   |    0.30045   2.16828   0.00000    |
 |   121    0.20833   0.00000   0.00000   |    0.37556   0.21683   0.00000    |
 |   122    0.20833   0.04167   0.00000   |    0.37556   0.30356   0.00000    |
 |   123    0.20833   0.08333   0.00000   |    0.37556   0.39029   0.00000    |
 |   124    0.20833   0.12500   0.00000   |    0.37556   0.47702   0.00000    |
 |   125    0.20833   0.16667   0.00000   |    0.37556   0.56375   0.00000    |
 |   126    0.20833   0.20833   0.00000   |    0.37556   0.65048   0.00000    |
 |   127    0.20833   0.25000   0.00000   |    0.37556   0.73721   0.00000    |
 |   128    0.20833   0.29167   0.00000   |    0.37556   0.82395   0.00000    |
 |   129    0.20833   0.33333   0.00000   |    0.37556   0.91068   0.00000    |
 |   130    0.20833   0.37500   0.00000   |    0.37556   0.99741   0.00000    |
 |   131    0.20833   0.41667   0.00000   |    0.37556   1.08414   0.00000    |
 |   132    0.20833   0.45833   0.00000   |    0.37556   1.17087   0.00000    |
 |   133    0.20833   0.50000   0.00000   |    0.37556   1.25760   0.00000    |
 |   134    0.20833   0.54167   0.00000   |    0.37556   1.34433   0.00000    |
 |   135    0.20833   0.58333   0.00000   |    0.37556   1.43106   0.00000    |
 |   136    0.20833   0.62500   0.00000   |    0.37556   1.51779   0.00000    |
 |   137    0.20833   0.66667   0.00000   |    0.37556   1.60453   0.00000    |
 |   138    0.20833   0.70833   0.00000   |    0.37556   1.69126   0.00000    |
 |   139    0.20833   0.75000   0.00000   |    0.37556   1.77799   0.00000    |
 |   140    0.20833   0.79167   0.00000   |    0.37556   1.86472   0.00000    |
 |   141    0.20833   0.83333   0.00000   |    0.37556   1.95145   0.00000    |
 |   142    0.20833   0.87500   0.00000   |    0.37556   2.03818   0.00000    |
 |   143    0.20833   0.91667   0.00000   |    0.37556   2.12491   0.00000    |
 |   144    0.20833   0.95833   0.00000   |    0.37556   2.21164   0.00000    |
 |   145    0.25000   0.00000   0.00000   |    0.45067   0.26019   0.00000    |
 |   146    0.25000   0.04167   0.00000   |    0.45067   0.34692   0.00000    |
 |   147    0.25000   0.08333   0.00000   |    0.45067   0.43366   0.00000    |
 |   148    0.25000   0.12500   0.00000   |    0.45067   0.52039   0.00000    |
 |   149    0.25000   0.16667   0.00000   |    0.45067   0.60712   0.00000    |
 |   150    0.25000   0.20833   0.00000   |    0.45067   0.69385   0.00000    |
 |   151    0.25000   0.25000   0.00000   |    0.45067   0.78058   0.00000    |
 |   152    0.25000   0.29167   0.00000   |    0.45067   0.86731   0.00000    |
 |   153    0.25000   0.33333   0.00000   |    0.45067   0.95404   0.00000    |
 |   154    0.25000   0.37500   0.00000   |    0.45067   1.04077   0.00000    |
 |   155    0.25000   0.41667   0.00000   |    0.45067   1.12750   0.00000    |
 |   156    0.25000   0.45833   0.00000   |    0.45067   1.21424   0.00000    |
 |   157    0.25000   0.50000   0.00000   |    0.45067   1.30097   0.00000    |
 |   158    0.25000   0.54167   0.00000   |    0.45067   1.38770   0.00000    |
 |   159    0.25000   0.58333   0.00000   |    0.45067   1.47443   0.00000    |
 |   160    0.25000   0.62500   0.00000   |    0.45067   1.56116   0.00000    |
 |   161    0.25000   0.66667   0.00000   |    0.45067   1.64789   0.00000    |
 |   162    0.25000   0.70833   0.00000   |    0.45067   1.73462   0.00000    |
 |   163    0.25000   0.75000   0.00000   |    0.45067   1.82135   0.00000    |
 |   164    0.25000   0.79167   0.00000   |    0.45067   1.90808   0.00000    |
 |   165    0.25000   0.83333   0.00000   |    0.45067   1.99482   0.00000    |
 |   166    0.25000   0.87500   0.00000   |    0.45067   2.08155   0.00000    |
 |   167    0.25000   0.91667   0.00000   |    0.45067   2.16828   0.00000    |
 |   168    0.25000   0.95833   0.00000   |    0.45067   2.25501   0.00000    |
 |   169    0.29167   0.00000   0.00000   |    0.52578   0.30356   0.00000    |
 |   170    0.29167   0.04167   0.00000   |    0.52578   0.39029   0.00000    |
 |   171    0.29167   0.08333   0.00000   |    0.52578   0.47702   0.00000    |
 |   172    0.29167   0.12500   0.00000   |    0.52578   0.56375   0.00000    |
 |   173    0.29167   0.16667   0.00000   |    0.52578   0.65048   0.00000    |
 |   174    0.29167   0.20833   0.00000   |    0.52578   0.73721   0.00000    |
 |   175    0.29167   0.25000   0.00000   |    0.52578   0.82395   0.00000    |
 |   176    0.29167   0.29167   0.00000   |    0.52578   0.91068   0.00000    |
 |   177    0.29167   0.33333   0.00000   |    0.52578   0.99741   0.00000    |
 |   178    0.29167   0.37500   0.00000   |    0.52578   1.08414   0.00000    |
 |   179    0.29167   0.41667   0.00000   |    0.52578   1.17087   0.00000    |
 |   180    0.29167   0.45833   0.00000   |    0.52578   1.25760   0.00000    |
 |   181    0.29167   0.50000   0.00000   |    0.52578   1.34433   0.00000    |
 |   182    0.29167   0.54167   0.00000   |    0.52578   1.43106   0.00000    |
 |   183    0.29167   0.58333   0.00000   |    0.52578   1.51779   0.00000    |
 |   184    0.29167   0.62500   0.00000   |    0.52578   1.60453   0.00000    |
 |   185    0.29167   0.66667   0.00000   |    0.52578   1.69126   0.00000    |
 |   186    0.29167   0.70833   0.00000   |    0.52578   1.77799   0.00000    |
 |   187    0.29167   0.75000   0.00000   |    0.52578   1.86472   0.00000    |
 |   188    0.29167   0.79167   0.00000   |    0.52578   1.95145   0.00000    |
 |   189    0.29167   0.83333   0.00000   |    0.52578   2.03818   0.00000    |
 |   190    0.29167   0.87500   0.00000   |    0.52578   2.12491   0.00000    |
 |   191    0.29167   0.91667   0.00000   |    0.52578   2.21164   0.00000    |
 |   192    0.29167   0.95833   0.00000   |    0.52578   2.29837   0.00000    |
 |   193    0.33333   0.00000   0.00000   |    0.60089   0.34692   0.00000    |
 |   194    0.33333   0.04167   0.00000   |    0.60089   0.43366   0.00000    |
 |   195    0.33333   0.08333   0.00000   |    0.60089   0.52039   0.00000    |
 |   196    0.33333   0.12500   0.00000   |    0.60089   0.60712   0.00000    |
 |   197    0.33333   0.16667   0.00000   |    0.60089   0.69385   0.00000    |
 |   198    0.33333   0.20833   0.00000   |    0.60089   0.78058   0.00000    |
 |   199    0.33333   0.25000   0.00000   |    0.60089   0.86731   0.00000    |
 |   200    0.33333   0.29167   0.00000   |    0.60089   0.95404   0.00000    |
 |   201    0.33333   0.33333   0.00000   |    0.60089   1.04077   0.00000    |
 |   202    0.33333   0.37500   0.00000   |    0.60089   1.12750   0.00000    |
 |   203    0.33333   0.41667   0.00000   |    0.60089   1.21424   0.00000    |
 |   204    0.33333   0.45833   0.00000   |    0.60089   1.30097   0.00000    |
 |   205    0.33333   0.50000   0.00000   |    0.60089   1.38770   0.00000    |
 |   206    0.33333   0.54167   0.00000   |    0.60089   1.47443   0.00000    |
 |   207    0.33333   0.58333   0.00000   |    0.60089   1.56116   0.00000    |
 |   208    0.33333   0.62500   0.00000   |    0.60089   1.64789   0.00000    |
 |   209    0.33333   0.66667   0.00000   |    0.60089   1.73462   0.00000    |
 |   210    0.33333   0.70833   0.00000   |    0.60089   1.82135   0.00000    |
 |   211    0.33333   0.75000   0.00000   |    0.60089   1.90808   0.00000    |
 |   212    0.33333   0.79167   0.00000   |    0.60089   1.99482   0.00000    |
 |   213    0.33333   0.83333   0.00000   |    0.60089   2.08155   0.00000    |
 |   214    0.33333   0.87500   0.00000   |    0.60089   2.16828   0.00000    |
 |   215    0.33333   0.91667   0.00000   |    0.60089   2.25501   0.00000    |
 |   216    0.33333   0.95833   0.00000   |    0.60089   2.34174   0.00000    |
 |   217    0.37500   0.00000   0.00000   |    0.67600   0.39029   0.00000    |
 |   218    0.37500   0.04167   0.00000   |    0.67600   0.47702   0.00000    |
 |   219    0.37500   0.08333   0.00000   |    0.67600   0.56375   0.00000    |
 |   220    0.37500   0.12500   0.00000   |    0.67600   0.65048   0.00000    |
 |   221    0.37500   0.16667   0.00000   |    0.67600   0.73721   0.00000    |
 |   222    0.37500   0.20833   0.00000   |    0.67600   0.82395   0.00000    |
 |   223    0.37500   0.25000   0.00000   |    0.67600   0.91068   0.00000    |
 |   224    0.37500   0.29167   0.00000   |    0.67600   0.99741   0.00000    |
 |   225    0.37500   0.33333   0.00000   |    0.67600   1.08414   0.00000    |
 |   226    0.37500   0.37500   0.00000   |    0.67600   1.17087   0.00000    |
 |   227    0.37500   0.41667   0.00000   |    0.67600   1.25760   0.00000    |
 |   228    0.37500   0.45833   0.00000   |    0.67600   1.34433   0.00000    |
 |   229    0.37500   0.50000   0.00000   |    0.67600   1.43106   0.00000    |
 |   230    0.37500   0.54167   0.00000   |    0.67600   1.51779   0.00000    |
 |   231    0.37500   0.58333   0.00000   |    0.67600   1.60453   0.00000    |
 |   232    0.37500   0.62500   0.00000   |    0.67600   1.69126   0.00000    |
 |   233    0.37500   0.66667   0.00000   |    0.67600   1.77799   0.00000    |
 |   234    0.37500   0.70833   0.00000   |    0.67600   1.86472   0.00000    |
 |   235    0.37500   0.75000   0.00000   |    0.67600   1.95145   0.00000    |
 |   236    0.37500   0.79167   0.00000   |    0.67600   2.03818   0.00000    |
 |   237    0.37500   0.83333   0.00000   |    0.67600   2.12491   0.00000    |
 |   238    0.37500   0.87500   0.00000   |    0.67600   2.21164   0.00000    |
 |   239    0.37500   0.91667   0.00000   |    0.67600   2.29837   0.00000    |
 |   240    0.37500   0.95833   0.00000   |    0.67600   2.38511   0.00000    |
 |   241    0.41667   0.00000   0.00000   |    0.75111   0.43366   0.00000    |
 |   242    0.41667   0.04167   0.00000   |    0.75111   0.52039   0.00000    |
 |   243    0.41667   0.08333   0.00000   |    0.75111   0.60712   0.00000    |
 |   244    0.41667   0.12500   0.00000   |    0.75111   0.69385   0.00000    |
 |   245    0.41667   0.16667   0.00000   |    0.75111   0.78058   0.00000    |
 |   246    0.41667   0.20833   0.00000   |    0.75111   0.86731   0.00000    |
 |   247    0.41667   0.25000   0.00000   |    0.75111   0.95404   0.00000    |
 |   248    0.41667   0.29167   0.00000   |    0.75111   1.04077   0.00000    |
 |   249    0.41667   0.33333   0.00000   |    0.75111   1.12750   0.00000    |
 |   250    0.41667   0.37500   0.00000   |    0.75111   1.21424   0.00000    |
 |   251    0.41667   0.41667   0.00000   |    0.75111   1.30097   0.00000    |
 |   252    0.41667   0.45833   0.00000   |    0.75111   1.38770   0.00000    |
 |   253    0.41667   0.50000   0.00000   |    0.75111   1.47443   0.00000    |
 |   254    0.41667   0.54167   0.00000   |    0.75111   1.56116   0.00000    |
 |   255    0.41667   0.58333   0.00000   |    0.75111   1.64789   0.00000    |
 |   256    0.41667   0.62500   0.00000   |    0.75111   1.73462   0.00000    |
 |   257    0.41667   0.66667   0.00000   |    0.75111   1.82135   0.00000    |
 |   258    0.41667   0.70833   0.00000   |    0.75111   1.90808   0.00000    |
 |   259    0.41667   0.75000   0.00000   |    0.75111   1.99482   0.00000    |
 |   260    0.41667   0.79167   0.00000   |    0.75111   2.08155   0.00000    |
 |   261    0.41667   0.83333   0.00000   |    0.75111   2.16828   0.00000    |
 |   262    0.41667   0.87500   0.00000   |    0.75111   2.25501   0.00000    |
 |   263    0.41667   0.91667   0.00000   |    0.75111   2.34174   0.00000    |
 |   264    0.41667   0.95833   0.00000   |    0.75111   2.42847   0.00000    |
 |   265    0.45833   0.00000   0.00000   |    0.82622   0.47702   0.00000    |
 |   266    0.45833   0.04167   0.00000   |    0.82622   0.56375   0.00000    |
 |   267    0.45833   0.08333   0.00000   |    0.82622   0.65048   0.00000    |
 |   268    0.45833   0.12500   0.00000   |    0.82622   0.73721   0.00000    |
 |   269    0.45833   0.16667   0.00000   |    0.82622   0.82395   0.00000    |
 |   270    0.45833   0.20833   0.00000   |    0.82622   0.91068   0.00000    |
 |   271    0.45833   0.25000   0.00000   |    0.82622   0.99741   0.00000    |
 |   272    0.45833   0.29167   0.00000   |    0.82622   1.08414   0.00000    |
 |   273    0.45833   0.33333   0.00000   |    0.82622   1.17087   0.00000    |
 |   274    0.45833   0.37500   0.00000   |    0.82622   1.25760   0.00000    |
 |   275    0.45833   0.41667   0.00000   |    0.82622   1.34433   0.00000    |
 |   276    0.45833   0.45833   0.00000   |    0.82622   1.43106   0.00000    |
 |   277    0.45833   0.50000   0.00000   |    0.82622   1.51779   0.00000    |
 |   278    0.45833   0.54167   0.00000   |    0.82622   1.60453   0.00000    |
 |   279    0.45833   0.58333   0.00000   |    0.82622   1.69126   0.00000    |
 |   280    0.45833   0.62500   0.00000   |    0.82622   1.77799   0.00000    |
 |   281    0.45833   0.66667   0.00000   |    0.82622   1.86472   0.00000    |
 |   282    0.45833   0.70833   0.00000   |    0.82622   1.95145   0.00000    |
 |   283    0.45833   0.75000   0.00000   |    0.82622   2.03818   0.00000    |
 |   284    0.45833   0.79167   0.00000   |    0.82622   2.12491   0.00000    |
 |   285    0.45833   0.83333   0.00000   |    0.82622   2.21164   0.00000    |
 |   286    0.45833   0.87500   0.00000   |    0.82622   2.29837   0.00000    |
 |   287    0.45833   0.91667   0.00000   |    0.82622   2.38511   0.00000    |
 |   288    0.45833   0.95833   0.00000   |    0.82622   2.47184   0.00000    |
 |   289    0.50000   0.00000   0.00000   |    0.90134   0.52039   0.00000    |
 |   290    0.50000   0.04167   0.00000   |    0.90134   0.60712   0.00000    |
 |   291    0.50000   0.08333   0.00000   |    0.90134   0.69385   0.00000    |
 |   292    0.50000   0.12500   0.00000   |    0.90134   0.78058   0.00000    |
 |   293    0.50000   0.16667   0.00000   |    0.90134   0.86731   0.00000    |
 |   294    0.50000   0.20833   0.00000   |    0.90134   0.95404   0.00000    |
 |   295    0.50000   0.25000   0.00000   |    0.90134   1.04077   0.00000    |
 |   296    0.50000   0.29167   0.00000   |    0.90134   1.12750   0.00000    |
 |   297    0.50000   0.33333   0.00000   |    0.90134   1.21424   0.00000    |
 |   298    0.50000   0.37500   0.00000   |    0.90134   1.30097   0.00000    |
 |   299    0.50000   0.41667   0.00000   |    0.90134   1.38770   0.00000    |
 |   300    0.50000   0.45833   0.00000   |    0.90134   1.47443   0.00000    |
 |   301    0.50000   0.50000   0.00000   |    0.90134   1.56116   0.00000    |
 |   302    0.50000   0.54167   0.00000   |    0.90134   1.64789   0.00000    |
 |   303    0.50000   0.58333   0.00000   |    0.90134   1.73462   0.00000    |
 |   304    0.50000   0.62500   0.00000   |    0.90134   1.82135   0.00000    |
 |   305    0.50000   0.66667   0.00000   |    0.90134   1.90808   0.00000    |
 |   306    0.50000   0.70833   0.00000   |    0.90134   1.99482   0.00000    |
 |   307    0.50000   0.75000   0.00000   |    0.90134   2.08155   0.00000    |
 |   308    0.50000   0.79167   0.00000   |    0.90134   2.16828   0.00000    |
 |   309    0.50000   0.83333   0.00000   |    0.90134   2.25501   0.00000    |
 |   310    0.50000   0.87500   0.00000   |    0.90134   2.34174   0.00000    |
 |   311    0.50000   0.91667   0.00000   |    0.90134   2.42847   0.00000    |
 |   312    0.50000   0.95833   0.00000   |    0.90134   2.51520   0.00000    |
 |   313    0.54167   0.00000   0.00000   |    0.97645   0.56375   0.00000    |
 |   314    0.54167   0.04167   0.00000   |    0.97645   0.65048   0.00000    |
 |   315    0.54167   0.08333   0.00000   |    0.97645   0.73721   0.00000    |
 |   316    0.54167   0.12500   0.00000   |    0.97645   0.82395   0.00000    |
 |   317    0.54167   0.16667   0.00000   |    0.97645   0.91068   0.00000    |
 |   318    0.54167   0.20833   0.00000   |    0.97645   0.99741   0.00000    |
 |   319    0.54167   0.25000   0.00000   |    0.97645   1.08414   0.00000    |
 |   320    0.54167   0.29167   0.00000   |    0.97645   1.17087   0.00000    |
 |   321    0.54167   0.33333   0.00000   |    0.97645   1.25760   0.00000    |
 |   322    0.54167   0.37500   0.00000   |    0.97645   1.34433   0.00000    |
 |   323    0.54167   0.41667   0.00000   |    0.97645   1.43106   0.00000    |
 |   324    0.54167   0.45833   0.00000   |    0.97645   1.51779   0.00000    |
 |   325    0.54167   0.50000   0.00000   |    0.97645   1.60453   0.00000    |
 |   326    0.54167   0.54167   0.00000   |    0.97645   1.69126   0.00000    |
 |   327    0.54167   0.58333   0.00000   |    0.97645   1.77799   0.00000    |
 |   328    0.54167   0.62500   0.00000   |    0.97645   1.86472   0.00000    |
 |   329    0.54167   0.66667   0.00000   |    0.97645   1.95145   0.00000    |
 |   330    0.54167   0.70833   0.00000   |    0.97645   2.03818   0.00000    |
 |   331    0.54167   0.75000   0.00000   |    0.97645   2.12491   0.00000    |
 |   332    0.54167   0.79167   0.00000   |    0.97645   2.21164   0.00000    |
 |   333    0.54167   0.83333   0.00000   |    0.97645   2.29837   0.00000    |
 |   334    0.54167   0.87500   0.00000   |    0.97645   2.38511   0.00000    |
 |   335    0.54167   0.91667   0.00000   |    0.97645   2.47184   0.00000    |
 |   336    0.54167   0.95833   0.00000   |    0.97645   2.55857   0.00000    |
 |   337    0.58333   0.00000   0.00000   |    1.05156   0.60712   0.00000    |
 |   338    0.58333   0.04167   0.00000   |    1.05156   0.69385   0.00000    |
 |   339    0.58333   0.08333   0.00000   |    1.05156   0.78058   0.00000    |
 |   340    0.58333   0.12500   0.00000   |    1.05156   0.86731   0.00000    |
 |   341    0.58333   0.16667   0.00000   |    1.05156   0.95404   0.00000    |
 |   342    0.58333   0.20833   0.00000   |    1.05156   1.04077   0.00000    |
 |   343    0.58333   0.25000   0.00000   |    1.05156   1.12750   0.00000    |
 |   344    0.58333   0.29167   0.00000   |    1.05156   1.21424   0.00000    |
 |   345    0.58333   0.33333   0.00000   |    1.05156   1.30097   0.00000    |
 |   346    0.58333   0.37500   0.00000   |    1.05156   1.38770   0.00000    |
 |   347    0.58333   0.41667   0.00000   |    1.05156   1.47443   0.00000    |
 |   348    0.58333   0.45833   0.00000   |    1.05156   1.56116   0.00000    |
 |   349    0.58333   0.50000   0.00000   |    1.05156   1.64789   0.00000    |
 |   350    0.58333   0.54167   0.00000   |    1.05156   1.73462   0.00000    |
 |   351    0.58333   0.58333   0.00000   |    1.05156   1.82135   0.00000    |
 |   352    0.58333   0.62500   0.00000   |    1.05156   1.90808   0.00000    |
 |   353    0.58333   0.66667   0.00000   |    1.05156   1.99482   0.00000    |
 |   354    0.58333   0.70833   0.00000   |    1.05156   2.08155   0.00000    |
 |   355    0.58333   0.75000   0.00000   |    1.05156   2.16828   0.00000    |
 |   356    0.58333   0.79167   0.00000   |    1.05156   2.25501   0.00000    |
 |   357    0.58333   0.83333   0.00000   |    1.05156   2.34174   0.00000    |
 |   358    0.58333   0.87500   0.00000   |    1.05156   2.42847   0.00000    |
 |   359    0.58333   0.91667   0.00000   |    1.05156   2.51520   0.00000    |
 |   360    0.58333   0.95833   0.00000   |    1.05156   2.60193   0.00000    |
 |   361    0.62500   0.00000   0.00000   |    1.12667   0.65048   0.00000    |
 |   362    0.62500   0.04167   0.00000   |    1.12667   0.73721   0.00000    |
 |   363    0.62500   0.08333   0.00000   |    1.12667   0.82395   0.00000    |
 |   364    0.62500   0.12500   0.00000   |    1.12667   0.91068   0.00000    |
 |   365    0.62500   0.16667   0.00000   |    1.12667   0.99741   0.00000    |
 |   366    0.62500   0.20833   0.00000   |    1.12667   1.08414   0.00000    |
 |   367    0.62500   0.25000   0.00000   |    1.12667   1.17087   0.00000    |
 |   368    0.62500   0.29167   0.00000   |    1.12667   1.25760   0.00000    |
 |   369    0.62500   0.33333   0.00000   |    1.12667   1.34433   0.00000    |
 |   370    0.62500   0.37500   0.00000   |    1.12667   1.43106   0.00000    |
 |   371    0.62500   0.41667   0.00000   |    1.12667   1.51779   0.00000    |
 |   372    0.62500   0.45833   0.00000   |    1.12667   1.60453   0.00000    |
 |   373    0.62500   0.50000   0.00000   |    1.12667   1.69126   0.00000    |
 |   374    0.62500   0.54167   0.00000   |    1.12667   1.77799   0.00000    |
 |   375    0.62500   0.58333   0.00000   |    1.12667   1.86472   0.00000    |
 |   376    0.62500   0.62500   0.00000   |    1.12667   1.95145   0.00000    |
 |   377    0.62500   0.66667   0.00000   |    1.12667   2.03818   0.00000    |
 |   378    0.62500   0.70833   0.00000   |    1.12667   2.12491   0.00000    |
 |   379    0.62500   0.75000   0.00000   |    1.12667   2.21164   0.00000    |
 |   380    0.62500   0.79167   0.00000   |    1.12667   2.29837   0.00000    |
 |   381    0.62500   0.83333   0.00000   |    1.12667   2.38511   0.00000    |
 |   382    0.62500   0.87500   0.00000   |    1.12667   2.47184   0.00000    |
 |   383    0.62500   0.91667   0.00000   |    1.12667   2.55857   0.00000    |
 |   384    0.62500   0.95833   0.00000   |    1.12667   2.64530   0.00000    |
 |   385    0.66667   0.00000   0.00000   |    1.20178   0.69385   0.00000    |
 |   386    0.66667   0.04167   0.00000   |    1.20178   0.78058   0.00000    |
 |   387    0.66667   0.08333   0.00000   |    1.20178   0.86731   0.00000    |
 |   388    0.66667   0.12500   0.00000   |    1.20178   0.95404   0.00000    |
 |   389    0.66667   0.16667   0.00000   |    1.20178   1.04077   0.00000    |
 |   390    0.66667   0.20833   0.00000   |    1.20178   1.12750   0.00000    |
 |   391    0.66667   0.25000   0.00000   |    1.20178   1.21424   0.00000    |
 |   392    0.66667   0.29167   0.00000   |    1.20178   1.30097   0.00000    |
 |   393    0.66667   0.33333   0.00000   |    1.20178   1.38770   0.00000    |
 |   394    0.66667   0.37500   0.00000   |    1.20178   1.47443   0.00000    |
 |   395    0.66667   0.41667   0.00000   |    1.20178   1.56116   0.00000    |
 |   396    0.66667   0.45833   0.00000   |    1.20178   1.64789   0.00000    |
 |   397    0.66667   0.50000   0.00000   |    1.20178   1.73462   0.00000    |
 |   398    0.66667   0.54167   0.00000   |    1.20178   1.82135   0.00000    |
 |   399    0.66667   0.58333   0.00000   |    1.20178   1.90808   0.00000    |
 |   400    0.66667   0.62500   0.00000   |    1.20178   1.99482   0.00000    |
 |   401    0.66667   0.66667   0.00000   |    1.20178   2.08155   0.00000    |
 |   402    0.66667   0.70833   0.00000   |    1.20178   2.16828   0.00000    |
 |   403    0.66667   0.75000   0.00000   |    1.20178   2.25501   0.00000    |
 |   404    0.66667   0.79167   0.00000   |    1.20178   2.34174   0.00000    |
 |   405    0.66667   0.83333   0.00000   |    1.20178   2.42847   0.00000    |
 |   406    0.66667   0.87500   0.00000   |    1.20178   2.51520   0.00000    |
 |   407    0.66667   0.91667   0.00000   |    1.20178   2.60193   0.00000    |
 |   408    0.66667   0.95833   0.00000   |    1.20178   2.68866   0.00000    |
 |   409    0.70833   0.00000   0.00000   |    1.27689   0.73721   0.00000    |
 |   410    0.70833   0.04167   0.00000   |    1.27689   0.82395   0.00000    |
 |   411    0.70833   0.08333   0.00000   |    1.27689   0.91068   0.00000    |
 |   412    0.70833   0.12500   0.00000   |    1.27689   0.99741   0.00000    |
 |   413    0.70833   0.16667   0.00000   |    1.27689   1.08414   0.00000    |
 |   414    0.70833   0.20833   0.00000   |    1.27689   1.17087   0.00000    |
 |   415    0.70833   0.25000   0.00000   |    1.27689   1.25760   0.00000    |
 |   416    0.70833   0.29167   0.00000   |    1.27689   1.34433   0.00000    |
 |   417    0.70833   0.33333   0.00000   |    1.27689   1.43106   0.00000    |
 |   418    0.70833   0.37500   0.00000   |    1.27689   1.51779   0.00000    |
 |   419    0.70833   0.41667   0.00000   |    1.27689   1.60453   0.00000    |
 |   420    0.70833   0.45833   0.00000   |    1.27689   1.69126   0.00000    |
 |   421    0.70833   0.50000   0.00000   |    1.27689   1.77799   0.00000    |
 |   422    0.70833   0.54167   0.00000   |    1.27689   1.86472   0.00000    |
 |   423    0.70833   0.58333   0.00000   |    1.27689   1.95145   0.00000    |
 |   424    0.70833   0.62500   0.00000   |    1.27689   2.03818   0.00000    |
 |   425    0.70833   0.66667   0.00000   |    1.27689   2.12491   0.00000    |
 |   426    0.70833   0.70833   0.00000   |    1.27689   2.21164   0.00000    |
 |   427    0.70833   0.75000   0.00000   |    1.27689   2.29837   0.00000    |
 |   428    0.70833   0.79167   0.00000   |    1.27689   2.38511   0.00000    |
 |   429    0.70833   0.83333   0.00000   |    1.27689   2.47184   0.00000    |
 |   430    0.70833   0.87500   0.00000   |    1.27689   2.55857   0.00000    |
 |   431    0.70833   0.91667   0.00000   |    1.27689   2.64530   0.00000    |
 |   432    0.70833   0.95833   0.00000   |    1.27689   2.73203   0.00000    |
 |   433    0.75000   0.00000   0.00000   |    1.35200   0.78058   0.00000    |
 |   434    0.75000   0.04167   0.00000   |    1.35200   0.86731   0.00000    |
 |   435    0.75000   0.08333   0.00000   |    1.35200   0.95404   0.00000    |
 |   436    0.75000   0.12500   0.00000   |    1.35200   1.04077   0.00000    |
 |   437    0.75000   0.16667   0.00000   |    1.35200   1.12750   0.00000    |
 |   438    0.75000   0.20833   0.00000   |    1.35200   1.21424   0.00000    |
 |   439    0.75000   0.25000   0.00000   |    1.35200   1.30097   0.00000    |
 |   440    0.75000   0.29167   0.00000   |    1.35200   1.38770   0.00000    |
 |   441    0.75000   0.33333   0.00000   |    1.35200   1.47443   0.00000    |
 |   442    0.75000   0.37500   0.00000   |    1.35200   1.56116   0.00000    |
 |   443    0.75000   0.41667   0.00000   |    1.35200   1.64789   0.00000    |
 |   444    0.75000   0.45833   0.00000   |    1.35200   1.73462   0.00000    |
 |   445    0.75000   0.50000   0.00000   |    1.35200   1.82135   0.00000    |
 |   446    0.75000   0.54167   0.00000   |    1.35200   1.90808   0.00000    |
 |   447    0.75000   0.58333   0.00000   |    1.35200   1.99482   0.00000    |
 |   448    0.75000   0.62500   0.00000   |    1.35200   2.08155   0.00000    |
 |   449    0.75000   0.66667   0.00000   |    1.35200   2.16828   0.00000    |
 |   450    0.75000   0.70833   0.00000   |    1.35200   2.25501   0.00000    |
 |   451    0.75000   0.75000   0.00000   |    1.35200   2.34174   0.00000    |
 |   452    0.75000   0.79167   0.00000   |    1.35200   2.42847   0.00000    |
 |   453    0.75000   0.83333   0.00000   |    1.35200   2.51520   0.00000    |
 |   454    0.75000   0.87500   0.00000   |    1.35200   2.60193   0.00000    |
 |   455    0.75000   0.91667   0.00000   |    1.35200   2.68866   0.00000    |
 |   456    0.75000   0.95833   0.00000   |    1.35200   2.77540   0.00000    |
 |   457    0.79167   0.00000   0.00000   |    1.42712   0.82395   0.00000    |
 |   458    0.79167   0.04167   0.00000   |    1.42712   0.91068   0.00000    |
 |   459    0.79167   0.08333   0.00000   |    1.42712   0.99741   0.00000    |
 |   460    0.79167   0.12500   0.00000   |    1.42712   1.08414   0.00000    |
 |   461    0.79167   0.16667   0.00000   |    1.42712   1.17087   0.00000    |
 |   462    0.79167   0.20833   0.00000   |    1.42712   1.25760   0.00000    |
 |   463    0.79167   0.25000   0.00000   |    1.42712   1.34433   0.00000    |
 |   464    0.79167   0.29167   0.00000   |    1.42712   1.43106   0.00000    |
 |   465    0.79167   0.33333   0.00000   |    1.42712   1.51779   0.00000    |
 |   466    0.79167   0.37500   0.00000   |    1.42712   1.60453   0.00000    |
 |   467    0.79167   0.41667   0.00000   |    1.42712   1.69126   0.00000    |
 |   468    0.79167   0.45833   0.00000   |    1.42712   1.77799   0.00000    |
 |   469    0.79167   0.50000   0.00000   |    1.42712   1.86472   0.00000    |
 |   470    0.79167   0.54167   0.00000   |    1.42712   1.95145   0.00000    |
 |   471    0.79167   0.58333   0.00000   |    1.42712   2.03818   0.00000    |
 |   472    0.79167   0.62500   0.00000   |    1.42712   2.12491   0.00000    |
 |   473    0.79167   0.66667   0.00000   |    1.42712   2.21164   0.00000    |
 |   474    0.79167   0.70833   0.00000   |    1.42712   2.29837   0.00000    |
 |   475    0.79167   0.75000   0.00000   |    1.42712   2.38511   0.00000    |
 |   476    0.79167   0.79167   0.00000   |    1.42712   2.47184   0.00000    |
 |   477    0.79167   0.83333   0.00000   |    1.42712   2.55857   0.00000    |
 |   478    0.79167   0.87500   0.00000   |    1.42712   2.64530   0.00000    |
 |   479    0.79167   0.91667   0.00000   |    1.42712   2.73203   0.00000    |
 |   480    0.79167   0.95833   0.00000   |    1.42712   2.81876   0.00000    |
 |   481    0.83333   0.00000   0.00000   |    1.50223   0.86731   0.00000    |
 |   482    0.83333   0.04167   0.00000   |    1.50223   0.95404   0.00000    |
 |   483    0.83333   0.08333   0.00000   |    1.50223   1.04077   0.00000    |
 |   484    0.83333   0.12500   0.00000   |    1.50223   1.12750   0.00000    |
 |   485    0.83333   0.16667   0.00000   |    1.50223   1.21424   0.00000    |
 |   486    0.83333   0.20833   0.00000   |    1.50223   1.30097   0.00000    |
 |   487    0.83333   0.25000   0.00000   |    1.50223   1.38770   0.00000    |
 |   488    0.83333   0.29167   0.00000   |    1.50223   1.47443   0.00000    |
 |   489    0.83333   0.33333   0.00000   |    1.50223   1.56116   0.00000    |
 |   490    0.83333   0.37500   0.00000   |    1.50223   1.64789   0.00000    |
 |   491    0.83333   0.41667   0.00000   |    1.50223   1.73462   0.00000    |
 |   492    0.83333   0.45833   0.00000   |    1.50223   1.82135   0.00000    |
 |   493    0.83333   0.50000   0.00000   |    1.50223   1.90808   0.00000    |
 |   494    0.83333   0.54167   0.00000   |    1.50223   1.99482   0.00000    |
 |   495    0.83333   0.58333   0.00000   |    1.50223   2.08155   0.00000    |
 |   496    0.83333   0.62500   0.00000   |    1.50223   2.16828   0.00000    |
 |   497    0.83333   0.66667   0.00000   |    1.50223   2.25501   0.00000    |
 |   498    0.83333   0.70833   0.00000   |    1.50223   2.34174   0.00000    |
 |   499    0.83333   0.75000   0.00000   |    1.50223   2.42847   0.00000    |
 |   500    0.83333   0.79167   0.00000   |    1.50223   2.51520   0.00000    |
 |   501    0.83333   0.83333   0.00000   |    1.50223   2.60193   0.00000    |
 |   502    0.83333   0.87500   0.00000   |    1.50223   2.68866   0.00000    |
 |   503    0.83333   0.91667   0.00000   |    1.50223   2.77540   0.00000    |
 |   504    0.83333   0.95833   0.00000   |    1.50223   2.86213   0.00000    |
 |   505    0.87500   0.00000   0.00000   |    1.57734   0.91068   0.00000    |
 |   506    0.87500   0.04167   0.00000   |    1.57734   0.99741   0.00000    |
 |   507    0.87500   0.08333   0.00000   |    1.57734   1.08414   0.00000    |
 |   508    0.87500   0.12500   0.00000   |    1.57734   1.17087   0.00000    |
 |   509    0.87500   0.16667   0.00000   |    1.57734   1.25760   0.00000    |
 |   510    0.87500   0.20833   0.00000   |    1.57734   1.34433   0.00000    |
 |   511    0.87500   0.25000   0.00000   |    1.57734   1.43106   0.00000    |
 |   512    0.87500   0.29167   0.00000   |    1.57734   1.51779   0.00000    |
 |   513    0.87500   0.33333   0.00000   |    1.57734   1.60453   0.00000    |
 |   514    0.87500   0.37500   0.00000   |    1.57734   1.69126   0.00000    |
 |   515    0.87500   0.41667   0.00000   |    1.57734   1.77799   0.00000    |
 |   516    0.87500   0.45833   0.00000   |    1.57734   1.86472   0.00000    |
 |   517    0.87500   0.50000   0.00000   |    1.57734   1.95145   0.00000    |
 |   518    0.87500   0.54167   0.00000   |    1.57734   2.03818   0.00000    |
 |   519    0.87500   0.58333   0.00000   |    1.57734   2.12491   0.00000    |
 |   520    0.87500   0.62500   0.00000   |    1.57734   2.21164   0.00000    |
 |   521    0.87500   0.66667   0.00000   |    1.57734   2.29837   0.00000    |
 |   522    0.87500   0.70833   0.00000   |    1.57734   2.38511   0.00000    |
 |   523    0.87500   0.75000   0.00000   |    1.57734   2.47184   0.00000    |
 |   524    0.87500   0.79167   0.00000   |    1.57734   2.55857   0.00000    |
 |   525    0.87500   0.83333   0.00000   |    1.57734   2.64530   0.00000    |
 |   526    0.87500   0.87500   0.00000   |    1.57734   2.73203   0.00000    |
 |   527    0.87500   0.91667   0.00000   |    1.57734   2.81876   0.00000    |
 |   528    0.87500   0.95833   0.00000   |    1.57734   2.90549   0.00000    |
 |   529    0.91667   0.00000   0.00000   |    1.65245   0.95404   0.00000    |
 |   530    0.91667   0.04167   0.00000   |    1.65245   1.04077   0.00000    |
 |   531    0.91667   0.08333   0.00000   |    1.65245   1.12750   0.00000    |
 |   532    0.91667   0.12500   0.00000   |    1.65245   1.21424   0.00000    |
 |   533    0.91667   0.16667   0.00000   |    1.65245   1.30097   0.00000    |
 |   534    0.91667   0.20833   0.00000   |    1.65245   1.38770   0.00000    |
 |   535    0.91667   0.25000   0.00000   |    1.65245   1.47443   0.00000    |
 |   536    0.91667   0.29167   0.00000   |    1.65245   1.56116   0.00000    |
 |   537    0.91667   0.33333   0.00000   |    1.65245   1.64789   0.00000    |
 |   538    0.91667   0.37500   0.00000   |    1.65245   1.73462   0.00000    |
 |   539    0.91667   0.41667   0.00000   |    1.65245   1.82135   0.00000    |
 |   540    0.91667   0.45833   0.00000   |    1.65245   1.90808   0.00000    |
 |   541    0.91667   0.50000   0.00000   |    1.65245   1.99482   0.00000    |
 |   542    0.91667   0.54167   0.00000   |    1.65245   2.08155   0.00000    |
 |   543    0.91667   0.58333   0.00000   |    1.65245   2.16828   0.00000    |
 |   544    0.91667   0.62500   0.00000   |    1.65245   2.25501   0.00000    |
 |   545    0.91667   0.66667   0.00000   |    1.65245   2.34174   0.00000    |
 |   546    0.91667   0.70833   0.00000   |    1.65245   2.42847   0.00000    |
 |   547    0.91667   0.75000   0.00000   |    1.65245   2.51520   0.00000    |
 |   548    0.91667   0.79167   0.00000   |    1.65245   2.60193   0.00000    |
 |   549    0.91667   0.83333   0.00000   |    1.65245   2.68866   0.00000    |
 |   550    0.91667   0.87500   0.00000   |    1.65245   2.77540   0.00000    |
 |   551    0.91667   0.91667   0.00000   |    1.65245   2.86213   0.00000    |
 |   552    0.91667   0.95833   0.00000   |    1.65245   2.94886   0.00000    |
 |   553    0.95833   0.00000   0.00000   |    1.72756   0.99741   0.00000    |
 |   554    0.95833   0.04167   0.00000   |    1.72756   1.08414   0.00000    |
 |   555    0.95833   0.08333   0.00000   |    1.72756   1.17087   0.00000    |
 |   556    0.95833   0.12500   0.00000   |    1.72756   1.25760   0.00000    |
 |   557    0.95833   0.16667   0.00000   |    1.72756   1.34433   0.00000    |
 |   558    0.95833   0.20833   0.00000   |    1.72756   1.43106   0.00000    |
 |   559    0.95833   0.25000   0.00000   |    1.72756   1.51779   0.00000    |
 |   560    0.95833   0.29167   0.00000   |    1.72756   1.60453   0.00000    |
 |   561    0.95833   0.33333   0.00000   |    1.72756   1.69126   0.00000    |
 |   562    0.95833   0.37500   0.00000   |    1.72756   1.77799   0.00000    |
 |   563    0.95833   0.41667   0.00000   |    1.72756   1.86472   0.00000    |
 |   564    0.95833   0.45833   0.00000   |    1.72756   1.95145   0.00000    |
 |   565    0.95833   0.50000   0.00000   |    1.72756   2.03818   0.00000    |
 |   566    0.95833   0.54167   0.00000   |    1.72756   2.12491   0.00000    |
 |   567    0.95833   0.58333   0.00000   |    1.72756   2.21164   0.00000    |
 |   568    0.95833   0.62500   0.00000   |    1.72756   2.29837   0.00000    |
 |   569    0.95833   0.66667   0.00000   |    1.72756   2.38511   0.00000    |
 |   570    0.95833   0.70833   0.00000   |    1.72756   2.47184   0.00000    |
 |   571    0.95833   0.75000   0.00000   |    1.72756   2.55857   0.00000    |
 |   572    0.95833   0.79167   0.00000   |    1.72756   2.64530   0.00000    |
 |   573    0.95833   0.83333   0.00000   |    1.72756   2.73203   0.00000    |
 |   574    0.95833   0.87500   0.00000   |    1.72756   2.81876   0.00000    |
 |   575    0.95833   0.91667   0.00000   |    1.72756   2.90549   0.00000    |
 |   576    0.95833   0.95833   0.00000   |    1.72756   2.99222   0.00000    |
 *----------------------------------------------------------------------------*
  
  
 *---------------------------------- MAIN ------------------------------------*
 |  Number of Wannier Functions               :                11             |
 |  Number of Objective Wannier Functions     :                11             |
 |  Number of input Bloch states              :                13             |
 |  Output verbosity (1=low, 5=high)          :                 2             |
 |  Timing Level (1=low, 5=high)              :                 1             |
 |  Optimisation (0=memory, 3=speed)          :                 3             |
 |  Length Unit                               :               Ang             |
 |  Post-processing setup (write *.nnkp)      :                 T             |
 |  Using Gamma-only branch of algorithms     :                 F             |
 *----------------------------------------------------------------------------*
 *------------------------------- WANNIERISE ---------------------------------*
 |  Total number of iterations                :               300             |
 |  Number of CG steps before reset           :                 5             |
 |  Trial step length for line search         :             2.000             |
 |  Convergence tolerence                     :         0.100E-09             |
 |  Convergence window                        :                -1             |
 |  Iterations between writing output         :                 1             |
 |  Iterations between backing up to disk     :               100             |
 |  Write r^2_nm to file                      :                 F             |
 |  Write xyz WF centres to file              :                 F             |
 |  Write on-site energies <0n|H|0n> to file  :                 F             |
 |  Use guiding centre to control phases      :                 F             |
 |  Use phases for initial projections        :                 F             |
 *----------------------------------------------------------------------------*
 *------------------------------- DISENTANGLE --------------------------------*
 |  Using band disentanglement                :                 T             |
 |  Total number of iterations                :               200             |
 |  Mixing ratio                              :             0.500             |
 |  Convergence tolerence                     :         1.000E-10             |
 |  Convergence window                        :                 3             |
 *----------------------------------------------------------------------------*
 *-------------------------------- PLOTTING ----------------------------------*
 |  Plotting interpolated bandstructure       :                 T             |
 |   Number of K-path sections                :                 3             |
 |   Divisions along first K-path section     :               100             |
 |   Output format                            :           gnuplot             |
 |   Output mode                              :               s-k             |
 *----------------------------------------------------------------------------*
 |   K-space path sections:                                                   |
 |    From: G       0.000  0.000  0.000     To: M       0.000  0.500  0.000   |
 |    From: M       0.000  0.500  0.000     To: K       0.330  0.330  0.000   |
 |    From: K       0.330  0.330  0.000     To: G       0.000  0.000  0.000   |
 *----------------------------------------------------------------------------*
 Time to read parameters        0.008 (sec)

 *---------------------------------- K-MESH ----------------------------------*
 +----------------------------------------------------------------------------+
 |                    Distance to Nearest-Neighbour Shells                    |
 |                    ------------------------------------                    |
 |          Shell             Distance (Ang^-1)          Multiplicity         |
 |          -----             -----------------          ------------         |
 |             1                   0.086731                      6            |
 |             2                   0.150223                      6            |
 |             3                   0.173462                      6            |
 |             4                   0.229469                     12            |
 |             5                   0.260193                      6            |
 |             6                   0.300445                      6            |
 |             7                   0.312714                     12            |
 |             8                   0.346925                      6            |
 |             9                   0.378052                     12            |
 |            10                   0.397452                     12            |
 |            11                   0.433656                      6            |
 |            12                   0.446605                      2            |
 |            13                   0.450668                      6            |
 |            14                   0.454948                     12            |
 |            15                   0.458938                     12            |
 |            16                   0.471193                     12            |
 |            17                   0.479109                     12            |
 |            18                   0.482898                     12            |
 |            19                   0.502107                     24            |
 |            20                   0.516872                     12            |
 |            21                   0.520387                      6            |
 |            22                   0.527565                     12            |
 |            23                   0.538259                     12            |
 |            24                   0.541636                     12            |
 |            25                   0.545202                     24            |
 |            26                   0.565520                     12            |
 |            27                   0.568734                     12            |
 |            28                   0.585132                     24            |
 |            29                   0.597849                     24            |
 |            30                   0.600891                      6            |
 |            31                   0.607118                     18            |
 |            32                   0.622505                     12            |
 |            33                   0.625427                     12            |
 |            34                   0.634474                     12            |
 |            35                   0.640375                     24            |
 |            36                   0.654806                     12            |
 +----------------------------------------------------------------------------+
 | The b-vectors are chosen automatically                                     |
 | Shell:  1 w_b   44.3127529      (Ang^2)                                    |
 | SVD found small singular value, Rejecting this shell and trying the next   |
 | SVD found small singular value, Rejecting this shell and trying the next   |
 | SVD found small singular value, Rejecting this shell and trying the next   |
 | SVD found small singular value, Rejecting this shell and trying the next   |
 | SVD found small singular value, Rejecting this shell and trying the next   |
 | SVD found small singular value, Rejecting this shell and trying the next   |
 | Shell:  1 w_b   44.3127529      (Ang^2)                                    |
 | Shell:  2 w_b    2.5068207      (Ang^2)                                    |
 | The following shells are used:   1, 12                                     |
 +----------------------------------------------------------------------------+
 |                        Shell   # Nearest-Neighbours                        |
 |                        -----   --------------------                        |
 |                          1               6                                 |
 |                         12               2                                 |
 +----------------------------------------------------------------------------+
 | Completeness relation is fully satisfied [Eq. (B1), PRB 56, 12847 (1997)]  |
 +----------------------------------------------------------------------------+
 |                  b_k Vectors (Ang^-1) and Weights (Ang^2)                  |
 |                  ----------------------------------------                  |
 |            No.         b_k(x)      b_k(y)      b_k(z)        w_b           |
 |            ---        --------------------------------     --------        |
 |             1         0.000000    0.086731    0.000000    44.312753        |
 |             2         0.075111    0.043366    0.000000    44.312753        |
 |             3         0.000000   -0.086731    0.000000    44.312753        |
 |             4         0.075111   -0.043366    0.000000    44.312753        |
 |             5        -0.075111   -0.043366    0.000000    44.312753        |
 |             6        -0.075111    0.043366    0.000000    44.312753        |
 |             7         0.000000    0.000000    0.446605     2.506821        |
 |             8         0.000000    0.000000   -0.446605     2.506821        |
 +----------------------------------------------------------------------------+
 |                           b_k Directions (Ang^-1)                          |
 |                           -----------------------                          |
 |            No.           x           y           z                         |
 |            ---        --------------------------------                     |
 |             1         0.000000    0.086731    0.000000                     |
 |             2         0.075111    0.043366    0.000000                     |
 |             3         0.075111   -0.043366    0.000000                     |
 |             4         0.000000    0.000000    0.446605                     |
 +----------------------------------------------------------------------------+
  
 Time to write kmesh            0.504 (sec)

 NbSe2.nnkp written.
 Time to write kmesh            0.504 (sec)

 Finished setting up k-point neighbours.

 Exiting wannier_setup in wannier90 15:51:44 

 Resuming Wannier90 at 15:54:11 

 
                                    ------
                                    SYSTEM
                                    ------
 
                              Lattice Vectors (Ang)
                    a_1     3.485483   0.000000   0.000000
                    a_2    -1.742742   3.018517   0.000000
                    a_3     0.000000   0.000000  14.068782
 
                   Unit Cell Volume:     148.01754  (Ang^3)
 
                        Reciprocal-Space Vectors (Ang^-1)
                    b_1     1.802673   1.040773   0.000000
                    b_2     0.000000   2.081547   0.000000
                    b_3     0.000000   0.000000   0.446605
  
 *----------------------------------------------------------------------------*
 |   Site       Fractional Coordinate          Cartesian Coordinate (Ang)     |
 +----------------------------------------------------------------------------+
 | Nb   1   0.00000   0.00000   0.50000   |    0.00000   0.00000   7.03439    |
 | Se   1   0.33333   0.66667   0.38020   |   -0.00000   2.01234   5.34897    |
 | Se   2   0.33333   0.66667   0.61980   |   -0.00000   2.01234   8.71981    |
 *----------------------------------------------------------------------------*
                                -----------
                                PROJECTIONS
                                -----------
  
 +----------------------------------------------------------------------------+
 |     Frac. Coord.   l mr  r        z-axis               x-axis          Z/a |
 +----------------------------------------------------------------------------+
 |  0.00  0.00  0.50  2  1  1  0.000  0.000  1.000  1.000  0.000  0.000   1.0 |
 |  0.00  0.00  0.50  2  2  1  0.000  0.000  1.000  1.000  0.000  0.000   1.0 |
 |  0.00  0.00  0.50  2  3  1  0.000  0.000  1.000  1.000  0.000  0.000   1.0 |
 |  0.00  0.00  0.50  2  4  1  0.000  0.000  1.000  1.000  0.000  0.000   1.0 |
 |  0.00  0.00  0.50  2  5  1  0.000  0.000  1.000  1.000  0.000  0.000   1.0 |
 |  0.33  0.67  0.38  1  1  1  0.000  0.000  1.000  1.000  0.000  0.000   1.0 |
 |  0.33  0.67  0.38  1  2  1  0.000  0.000  1.000  1.000  0.000  0.000   1.0 |
 |  0.33  0.67  0.38  1  3  1  0.000  0.000  1.000  1.000  0.000  0.000   1.0 |
 |  0.33  0.67  0.62  1  1  1  0.000  0.000  1.000  1.000  0.000  0.000   1.0 |
 |  0.33  0.67  0.62  1  2  1  0.000  0.000  1.000  1.000  0.000  0.000   1.0 |
 |  0.33  0.67  0.62  1  3  1  0.000  0.000  1.000  1.000  0.000  0.000   1.0 |
 +----------------------------------------------------------------------------+
  
                                ------------
                                K-POINT GRID
                                ------------
  
             Grid size = 24 x 24 x  1      Total points =  576
  
 *----------------------------------------------------------------------------*
 | k-point      Fractional Coordinate        Cartesian Coordinate (Ang^-1)    |
 +----------------------------------------------------------------------------+
 |     1    0.00000   0.00000   0.00000   |    0.00000   0.00000   0.00000    |
 |     2    0.00000   0.04167   0.00000   |    0.00000   0.08673   0.00000    |
 |     3    0.00000   0.08333   0.00000   |    0.00000   0.17346   0.00000    |
 |     4    0.00000   0.12500   0.00000   |    0.00000   0.26019   0.00000    |
 |     5    0.00000   0.16667   0.00000   |    0.00000   0.34692   0.00000    |
 |     6    0.00000   0.20833   0.00000   |    0.00000   0.43366   0.00000    |
 |     7    0.00000   0.25000   0.00000   |    0.00000   0.52039   0.00000    |
 |     8    0.00000   0.29167   0.00000   |    0.00000   0.60712   0.00000    |
 |     9    0.00000   0.33333   0.00000   |    0.00000   0.69385   0.00000    |
 |    10    0.00000   0.37500   0.00000   |    0.00000   0.78058   0.00000    |
 |    11    0.00000   0.41667   0.00000   |    0.00000   0.86731   0.00000    |
 |    12    0.00000   0.45833   0.00000   |    0.00000   0.95404   0.00000    |
 |    13    0.00000   0.50000   0.00000   |    0.00000   1.04077   0.00000    |
 |    14    0.00000   0.54167   0.00000   |    0.00000   1.12750   0.00000    |
 |    15    0.00000   0.58333   0.00000   |    0.00000   1.21424   0.00000    |
 |    16    0.00000   0.62500   0.00000   |    0.00000   1.30097   0.00000    |
 |    17    0.00000   0.66667   0.00000   |    0.00000   1.38770   0.00000    |
 |    18    0.00000   0.70833   0.00000   |    0.00000   1.47443   0.00000    |
 |    19    0.00000   0.75000   0.00000   |    0.00000   1.56116   0.00000    |
 |    20    0.00000   0.79167   0.00000   |    0.00000   1.64789   0.00000    |
 |    21    0.00000   0.83333   0.00000   |    0.00000   1.73462   0.00000    |
 |    22    0.00000   0.87500   0.00000   |    0.00000   1.82135   0.00000    |
 |    23    0.00000   0.91667   0.00000   |    0.00000   1.90808   0.00000    |
 |    24    0.00000   0.95833   0.00000   |    0.00000   1.99482   0.00000    |
 |    25    0.04167   0.00000   0.00000   |    0.07511   0.04337   0.00000    |
 |    26    0.04167   0.04167   0.00000   |    0.07511   0.13010   0.00000    |
 |    27    0.04167   0.08333   0.00000   |    0.07511   0.21683   0.00000    |
 |    28    0.04167   0.12500   0.00000   |    0.07511   0.30356   0.00000    |
 |    29    0.04167   0.16667   0.00000   |    0.07511   0.39029   0.00000    |
 |    30    0.04167   0.20833   0.00000   |    0.07511   0.47702   0.00000    |
 |    31    0.04167   0.25000   0.00000   |    0.07511   0.56375   0.00000    |
 |    32    0.04167   0.29167   0.00000   |    0.07511   0.65048   0.00000    |
 |    33    0.04167   0.33333   0.00000   |    0.07511   0.73721   0.00000    |
 |    34    0.04167   0.37500   0.00000   |    0.07511   0.82395   0.00000    |
 |    35    0.04167   0.41667   0.00000   |    0.07511   0.91068   0.00000    |
 |    36    0.04167   0.45833   0.00000   |    0.07511   0.99741   0.00000    |
 |    37    0.04167   0.50000   0.00000   |    0.07511   1.08414   0.00000    |
 |    38    0.04167   0.54167   0.00000   |    0.07511   1.17087   0.00000    |
 |    39    0.04167   0.58333   0.00000   |    0.07511   1.25760   0.00000    |
 |    40    0.04167   0.62500   0.00000   |    0.07511   1.34433   0.00000    |
 |    41    0.04167   0.66667   0.00000   |    0.07511   1.43106   0.00000    |
 |    42    0.04167   0.70833   0.00000   |    0.07511   1.51779   0.00000    |
 |    43    0.04167   0.75000   0.00000   |    0.07511   1.60453   0.00000    |
 |    44    0.04167   0.79167   0.00000   |    0.07511   1.69126   0.00000    |
 |    45    0.04167   0.83333   0.00000   |    0.07511   1.77799   0.00000    |
 |    46    0.04167   0.87500   0.00000   |    0.07511   1.86472   0.00000    |
 |    47    0.04167   0.91667   0.00000   |    0.07511   1.95145   0.00000    |
 |    48    0.04167   0.95833   0.00000   |    0.07511   2.03818   0.00000    |
 |    49    0.08333   0.00000   0.00000   |    0.15022   0.08673   0.00000    |
 |    50    0.08333   0.04167   0.00000   |    0.15022   0.17346   0.00000    |
 |    51    0.08333   0.08333   0.00000   |    0.15022   0.26019   0.00000    |
 |    52    0.08333   0.12500   0.00000   |    0.15022   0.34692   0.00000    |
 |    53    0.08333   0.16667   0.00000   |    0.15022   0.43366   0.00000    |
 |    54    0.08333   0.20833   0.00000   |    0.15022   0.52039   0.00000    |
 |    55    0.08333   0.25000   0.00000   |    0.15022   0.60712   0.00000    |
 |    56    0.08333   0.29167   0.00000   |    0.15022   0.69385   0.00000    |
 |    57    0.08333   0.33333   0.00000   |    0.15022   0.78058   0.00000    |
 |    58    0.08333   0.37500   0.00000   |    0.15022   0.86731   0.00000    |
 |    59    0.08333   0.41667   0.00000   |    0.15022   0.95404   0.00000    |
 |    60    0.08333   0.45833   0.00000   |    0.15022   1.04077   0.00000    |
 |    61    0.08333   0.50000   0.00000   |    0.15022   1.12750   0.00000    |
 |    62    0.08333   0.54167   0.00000   |    0.15022   1.21424   0.00000    |
 |    63    0.08333   0.58333   0.00000   |    0.15022   1.30097   0.00000    |
 |    64    0.08333   0.62500   0.00000   |    0.15022   1.38770   0.00000    |
 |    65    0.08333   0.66667   0.00000   |    0.15022   1.47443   0.00000    |
 |    66    0.08333   0.70833   0.00000   |    0.15022   1.56116   0.00000    |
 |    67    0.08333   0.75000   0.00000   |    0.15022   1.64789   0.00000    |
 |    68    0.08333   0.79167   0.00000   |    0.15022   1.73462   0.00000    |
 |    69    0.08333   0.83333   0.00000   |    0.15022   1.82135   0.00000    |
 |    70    0.08333   0.87500   0.00000   |    0.15022   1.90808   0.00000    |
 |    71    0.08333   0.91667   0.00000   |    0.15022   1.99482   0.00000    |
 |    72    0.08333   0.95833   0.00000   |    0.15022   2.08155   0.00000    |
 |    73    0.12500   0.00000   0.00000   |    0.22533   0.13010   0.00000    |
 |    74    0.12500   0.04167   0.00000   |    0.22533   0.21683   0.00000    |
 |    75    0.12500   0.08333   0.00000   |    0.22533   0.30356   0.00000    |
 |    76    0.12500   0.12500   0.00000   |    0.22533   0.39029   0.00000    |
 |    77    0.12500   0.16667   0.00000   |    0.22533   0.47702   0.00000    |
 |    78    0.12500   0.20833   0.00000   |    0.22533   0.56375   0.00000    |
 |    79    0.12500   0.25000   0.00000   |    0.22533   0.65048   0.00000    |
 |    80    0.12500   0.29167   0.00000   |    0.22533   0.73721   0.00000    |
 |    81    0.12500   0.33333   0.00000   |    0.22533   0.82395   0.00000    |
 |    82    0.12500   0.37500   0.00000   |    0.22533   0.91068   0.00000    |
 |    83    0.12500   0.41667   0.00000   |    0.22533   0.99741   0.00000    |
 |    84    0.12500   0.45833   0.00000   |    0.22533   1.08414   0.00000    |
 |    85    0.12500   0.50000   0.00000   |    0.22533   1.17087   0.00000    |
 |    86    0.12500   0.54167   0.00000   |    0.22533   1.25760   0.00000    |
 |    87    0.12500   0.58333   0.00000   |    0.22533   1.34433   0.00000    |
 |    88    0.12500   0.62500   0.00000   |    0.22533   1.43106   0.00000    |
 |    89    0.12500   0.66667   0.00000   |    0.22533   1.51779   0.00000    |
 |    90    0.12500   0.70833   0.00000   |    0.22533   1.60453   0.00000    |
 |    91    0.12500   0.75000   0.00000   |    0.22533   1.69126   0.00000    |
 |    92    0.12500   0.79167   0.00000   |    0.22533   1.77799   0.00000    |
 |    93    0.12500   0.83333   0.00000   |    0.22533   1.86472   0.00000    |
 |    94    0.12500   0.87500   0.00000   |    0.22533   1.95145   0.00000    |
 |    95    0.12500   0.91667   0.00000   |    0.22533   2.03818   0.00000    |
 |    96    0.12500   0.95833   0.00000   |    0.22533   2.12491   0.00000    |
 |    97    0.16667  -0.00000   0.00000   |    0.30045   0.17346   0.00000    |
 |    98    0.16667   0.04167   0.00000   |    0.30045   0.26019   0.00000    |
 |    99    0.16667   0.08333   0.00000   |    0.30045   0.34692   0.00000    |
 |   100    0.16667   0.12500   0.00000   |    0.30045   0.43366   0.00000    |
 |   101    0.16667   0.16667   0.00000   |    0.30045   0.52039   0.00000    |
 |   102    0.16667   0.20833   0.00000   |    0.30045   0.60712   0.00000    |
 |   103    0.16667   0.25000   0.00000   |    0.30045   0.69385   0.00000    |
 |   104    0.16667   0.29167   0.00000   |    0.30045   0.78058   0.00000    |
 |   105    0.16667   0.33333   0.00000   |    0.30045   0.86731   0.00000    |
 |   106    0.16667   0.37500   0.00000   |    0.30045   0.95404   0.00000    |
 |   107    0.16667   0.41667   0.00000   |    0.30045   1.04077   0.00000    |
 |   108    0.16667   0.45833   0.00000   |    0.30045   1.12750   0.00000    |
 |   109    0.16667   0.50000   0.00000   |    0.30045   1.21424   0.00000    |
 |   110    0.16667   0.54167   0.00000   |    0.30045   1.30097   0.00000    |
 |   111    0.16667   0.58333   0.00000   |    0.30045   1.38770   0.00000    |
 |   112    0.16667   0.62500   0.00000   |    0.30045   1.47443   0.00000    |
 |   113    0.16667   0.66667   0.00000   |    0.30045   1.56116   0.00000    |
 |   114    0.16667   0.70833   0.00000   |    0.30045   1.64789   0.00000    |
 |   115    0.16667   0.75000   0.00000   |    0.30045   1.73462   0.00000    |
 |   116    0.16667   0.79167   0.00000   |    0.30045   1.82135   0.00000    |
 |   117    0.16667   0.83333   0.00000   |    0.30045   1.90808   0.00000    |
 |   118    0.16667   0.87500   0.00000   |    0.30045   1.99482   0.00000    |
 |   119    0.16667   0.91667   0.00000   |    0.30045   2.08155   0.00000    |
 |   120    0.16667   0.95833   0.00000   |    0.30045   2.16828   0.00000    |
 |   121    0.20833   0.00000   0.00000   |    0.37556   0.21683   0.00000    |
 |   122    0.20833   0.04167   0.00000   |    0.37556   0.30356   0.00000    |
 |   123    0.20833   0.08333   0.00000   |    0.37556   0.39029   0.00000    |
 |   124    0.20833   0.12500   0.00000   |    0.37556   0.47702   0.00000    |
 |   125    0.20833   0.16667   0.00000   |    0.37556   0.56375   0.00000    |
 |   126    0.20833   0.20833   0.00000   |    0.37556   0.65048   0.00000    |
 |   127    0.20833   0.25000   0.00000   |    0.37556   0.73721   0.00000    |
 |   128    0.20833   0.29167   0.00000   |    0.37556   0.82395   0.00000    |
 |   129    0.20833   0.33333   0.00000   |    0.37556   0.91068   0.00000    |
 |   130    0.20833   0.37500   0.00000   |    0.37556   0.99741   0.00000    |
 |   131    0.20833   0.41667   0.00000   |    0.37556   1.08414   0.00000    |
 |   132    0.20833   0.45833   0.00000   |    0.37556   1.17087   0.00000    |
 |   133    0.20833   0.50000   0.00000   |    0.37556   1.25760   0.00000    |
 |   134    0.20833   0.54167   0.00000   |    0.37556   1.34433   0.00000    |
 |   135    0.20833   0.58333   0.00000   |    0.37556   1.43106   0.00000    |
 |   136    0.20833   0.62500   0.00000   |    0.37556   1.51779   0.00000    |
 |   137    0.20833   0.66667   0.00000   |    0.37556   1.60453   0.00000    |
 |   138    0.20833   0.70833   0.00000   |    0.37556   1.69126   0.00000    |
 |   139    0.20833   0.75000   0.00000   |    0.37556   1.77799   0.00000    |
 |   140    0.20833   0.79167   0.00000   |    0.37556   1.86472   0.00000    |
 |   141    0.20833   0.83333   0.00000   |    0.37556   1.95145   0.00000    |
 |   142    0.20833   0.87500   0.00000   |    0.37556   2.03818   0.00000    |
 |   143    0.20833   0.91667   0.00000   |    0.37556   2.12491   0.00000    |
 |   144    0.20833   0.95833   0.00000   |    0.37556   2.21164   0.00000    |
 |   145    0.25000   0.00000   0.00000   |    0.45067   0.26019   0.00000    |
 |   146    0.25000   0.04167   0.00000   |    0.45067   0.34692   0.00000    |
 |   147    0.25000   0.08333   0.00000   |    0.45067   0.43366   0.00000    |
 |   148    0.25000   0.12500   0.00000   |    0.45067   0.52039   0.00000    |
 |   149    0.25000   0.16667   0.00000   |    0.45067   0.60712   0.00000    |
[...]
        O_D=    428.3658667 O_OD=     32.1169705 O_TOT=    481.0986918 <-- SPRD
 Delta: O_D=  0.1266150E-01 O_OD= -0.5396084E-02 O_TOT=  0.7265420E-02 <-- DLTA
 ------------------------------------------------------------------------------
 Cycle:    288
  WF centre and spread    1  ( -0.557101, -0.983365,  0.280673 )    37.66911313
  WF centre and spread    2  (  0.766961, -1.002351, -0.373014 )    38.39540601
  WF centre and spread    3  (  0.551429, -0.979397, -0.223750 )    38.35612334
  WF centre and spread    4  ( -0.683406, -1.018042,  0.249962 )    38.66377403
  WF centre and spread    5  (  0.222935, -0.999235,  0.064474 )    38.57708233
  WF centre and spread    6  (  1.778022,  3.005600, -0.803111 )    49.79940718
  WF centre and spread    7  (  1.702737,  3.117417, -0.024574 )    50.79494199
  WF centre and spread    8  ( -1.857505,  2.366296,  0.108126 )    43.04651225
  WF centre and spread    9  ( -1.896215,  2.632783, -0.239664 )    46.48202406
  WF centre and spread   10  (  1.706838,  2.941957,  0.113748 )    50.42427154
  WF centre and spread   11  ( -1.732866,  2.994984, -1.259634 )    48.93999260
  Sum of centres and spreads (  0.001828, 12.076647, -2.106763 )   481.14864844
 
    288     0.499E-01     0.1552820598      481.1486365097      44.99  <-- CONV
        O_D=    428.4254421 O_OD=     32.1073398 O_TOT=    481.1486365 <-- SPRD
 Delta: O_D=  0.5957543E-01 O_OD= -0.9630705E-02 O_TOT=  0.4994473E-01 <-- DLTA
 ------------------------------------------------------------------------------
 Cycle:    289
  WF centre and spread    1  ( -0.558200, -0.983360,  0.280603 )    37.66841113
  WF centre and spread    2  (  0.768138, -1.002318, -0.372902 )    38.39609024
  WF centre and spread    3  (  0.552552, -0.979366, -0.223665 )    38.35567553
  WF centre and spread    4  ( -0.684485, -1.018047,  0.249786 )    38.66304142
  WF centre and spread    5  (  0.223497, -0.999248,  0.064583 )    38.57397075
  WF centre and spread    6  (  1.778026,  3.005614, -0.803093 )    49.79899632
  WF centre and spread    7  (  1.702804,  3.117436, -0.024543 )    50.79380713
  WF centre and spread    8  ( -1.857994,  2.365715,  0.108074 )    43.03422369
  WF centre and spread    9  ( -1.896423,  2.633264, -0.239683 )    46.48848783
  WF centre and spread   10  (  1.706845,  2.941925,  0.089309 )    50.42911298
  WF centre and spread   11  ( -1.732926,  2.995029, -1.235236 )    49.00006362
  Sum of centres and spreads (  0.001835, 12.076643, -2.106768 )   481.20188064
 
    289     0.532E-01     0.1647635918      481.2018687032      45.10  <-- CONV
        O_D=    428.4989349 O_OD=     32.0870792 O_TOT=    481.2018687 <-- SPRD
 Delta: O_D=  0.7349282E-01 O_OD= -0.2026062E-01 O_TOT=  0.5323219E-01 <-- DLTA
 ------------------------------------------------------------------------------
 Cycle:    290
  WF centre and spread    1  ( -0.560634, -0.983350,  0.280468 )    37.66748324
  WF centre and spread    2  (  0.770752, -1.002247, -0.372687 )    38.39845232
  WF centre and spread    3  (  0.555051, -0.979310, -0.223490 )    38.35521955
  WF centre and spread    4  ( -0.686903, -1.018044,  0.249426 )    38.66219665
  WF centre and spread    5  (  0.224730, -0.999288,  0.064819 )    38.57426801
  WF centre and spread    6  (  1.778039,  3.005648, -0.803054 )    49.79879871
  WF centre and spread    7  (  1.702918,  3.117457, -0.048908 )    50.79059455
  WF centre and spread    8  ( -1.859047,  2.364428,  0.107971 )    43.01368319
  WF centre and spread    9  ( -1.896862,  2.634363, -0.239707 )    46.49922714
  WF centre and spread   10  (  1.706863,  2.941848,  0.089276 )    50.42934514
  WF centre and spread   11  ( -1.733057,  2.995129, -1.210868 )    49.05893089
  Sum of centres and spreads (  0.001850, 12.076633, -2.106753 )   481.24819940
 
    290     0.463E-01     0.1380010178      481.2481874625      45.21  <-- CONV
        O_D=    428.5647390 O_OD=     32.0675938 O_TOT=    481.2481875 <-- SPRD
 Delta: O_D=  0.6580408E-01 O_OD= -0.1948532E-01 O_TOT=  0.4631876E-01 <-- DLTA
 ------------------------------------------------------------------------------
 Cycle:    291
  WF centre and spread    1  ( -0.563901, -0.983335,  0.280329 )    37.66666954
  WF centre and spread    2  (  0.774264, -1.002156, -0.372481 )    38.40218490
  WF centre and spread    3  (  0.558422, -0.979257, -0.223289 )    38.35475608
  WF centre and spread    4  ( -0.690198, -1.018010,  0.249028 )    38.66130252
  WF centre and spread    5  (  0.226349, -0.999348,  0.065066 )    38.57560284
  WF centre and spread    6  (  1.778064,  3.005695, -0.827426 )    49.75879066
  WF centre and spread    7  (  1.703021,  3.117451, -0.048832 )    50.78986234
  WF centre and spread    8  ( -1.860422,  2.362707,  0.107867 )    42.98913089
  WF centre and spread    9  ( -1.897398,  2.635882, -0.239694 )    46.51350742
  WF centre and spread   10  (  1.706901,  2.941738,  0.089235 )    50.43000147
  WF centre and spread   11  ( -1.733230,  2.995258, -1.210939 )    49.05803951
  Sum of centres and spreads (  0.001871, 12.076624, -2.131136 )   481.19984817
 
    291    -0.484E-01     0.1148685772      481.1998362326      45.32  <-- CONV
        O_D=    428.5252581 O_OD=     32.0587235 O_TOT=    481.1998362 <-- SPRD
 Delta: O_D= -0.3948084E-01 O_OD= -0.8870388E-02 O_TOT= -0.4835123E-01 <-- DLTA
 ------------------------------------------------------------------------------
 Cycle:    292
  WF centre and spread    1  ( -0.568631, -0.983309,  0.280182 )    37.66583425
  WF centre and spread    2  (  0.779336, -1.002018, -0.372306 )    38.40808568
  WF centre and spread    3  (  0.563320, -0.979208, -0.223050 )    38.35425379
  WF centre and spread    4  ( -0.695005, -1.017931,  0.248597 )    38.66038474
  WF centre and spread    5  (  0.228611, -0.999441,  0.040883 )    38.57844997
  WF centre and spread    6  (  1.778106,  3.005766, -0.827354 )    49.75858728
  WF centre and spread    7  (  1.703117,  3.117405, -0.048727 )    50.78998043
  WF centre and spread    8  ( -1.862361,  2.360215,  0.107748 )    42.95557454
  WF centre and spread    9  ( -1.898089,  2.638129, -0.239616 )    46.53482934
  WF centre and spread   10  (  1.706971,  2.941574,  0.113604 )    50.42604682
  WF centre and spread   11  ( -1.733473,  2.995433, -1.211037 )    49.05683225
  Sum of centres and spreads (  0.001902, 12.076616, -2.131076 )   481.18885907
 
    292    -0.110E-01     0.1155510495      481.1888471255      45.43  <-- CONV
        O_D=    428.5165470 O_OD=     32.0564455 O_TOT=    481.1888471 <-- SPRD
 Delta: O_D= -0.8711174E-02 O_OD= -0.2277933E-02 O_TOT= -0.1098911E-01 <-- DLTA
 ------------------------------------------------------------------------------
 Cycle:    293
  WF centre and spread    1  ( -0.573312, -0.983285,  0.280063 )    37.66532014
  WF centre and spread    2  (  0.784343, -1.001871, -0.372199 )    38.41430044
  WF centre and spread    3  (  0.568173, -0.979170, -0.222843 )    38.35394353
  WF centre and spread    4  ( -0.699773, -1.017843,  0.248249 )    38.65974288
  WF centre and spread    5  (  0.230791, -0.999530,  0.041351 )    38.57551698
  WF centre and spread    6  (  1.778150,  3.005839, -0.827285 )    49.75862692
  WF centre and spread    7  (  1.703182,  3.117344, -0.048626 )    50.79083765
  WF centre and spread    8  ( -1.864251,  2.357730,  0.107487 )    42.92193988
  WF centre and spread    9  ( -1.898712,  2.640383, -0.239581 )    46.55762320
  WF centre and spread   10  (  1.707047,  2.941413,  0.137976 )    50.42111789
  WF centre and spread   11  ( -1.733711,  2.995601, -1.186708 )    49.11456005
  Sum of centres and spreads (  0.001926, 12.076610, -2.082115 )   481.23352958
 
    293     0.447E-01     0.1762234412      481.2335176215      45.53  <-- CONV
        O_D=    428.5570342 O_OD=     32.0606288 O_TOT=    481.2335176 <-- SPRD
 Delta: O_D=  0.4048726E-01 O_OD=  0.4183232E-02 O_TOT=  0.4467050E-01 <-- DLTA
 ------------------------------------------------------------------------------
 Cycle:    294
  WF centre and spread    1  ( -0.577022, -0.983266,  0.279996 )    37.66479134
  WF centre and spread    2  (  0.788300, -1.001747, -0.372188 )    38.41923163
  WF centre and spread    3  (  0.572031, -0.979153, -0.222713 )    38.35354884
  WF centre and spread    4  ( -0.703563, -1.017765,  0.248064 )    38.65902147
  WF centre and spread    5  (  0.232416, -0.999603,  0.041843 )    38.57486294
  WF centre and spread    6  (  1.778185,  3.005898, -0.827232 )    49.75852545
  WF centre and spread    7  (  1.703231,  3.117289, -0.097391 )    50.78399839
  WF centre and spread    8  ( -1.865714,  2.355734,  0.107184 )    42.89579257
  WF centre and spread    9  ( -1.899141,  2.642199, -0.215150 )    46.58725346
  WF centre and spread   10  (  1.707113,  2.941288,  0.137934 )    50.42176287
  WF centre and spread   11  ( -1.733896,  2.995732, -1.186782 )    49.11349628
  Sum of centres and spreads (  0.001940, 12.076607, -2.106437 )   481.23228525
 
    294    -0.124E-02     0.1532016133      481.2322732921      45.64  <-- CONV
        O_D=    428.5531034 O_OD=     32.0633153 O_TOT=    481.2322733 <-- SPRD
 Delta: O_D= -0.3930874E-02 O_OD=  0.2686545E-02 O_TOT= -0.1244329E-02 <-- DLTA
 ------------------------------------------------------------------------------
 Cycle:    295
  WF centre and spread    1  ( -0.577874, -0.983260,  0.280031 )    37.66436455
  WF centre and spread    2  (  0.789196, -1.001709, -0.372322 )    38.42019226
  WF centre and spread    3  (  0.572940, -0.979171, -0.222745 )    38.35314028
  WF centre and spread    4  ( -0.704464, -1.017732,  0.248190 )    38.65857170
  WF centre and spread    5  (  0.232577, -0.999606,  0.042126 )    38.57593867
  WF centre and spread    6  (  1.778190,  3.005911, -0.827224 )    49.75821141
  WF centre and spread    7  (  1.703278,  3.117279, -0.097357 )    50.78310269
  WF centre and spread    8  ( -1.865983,  2.355201,  0.106957 )    42.88626160
  WF centre and spread    9  ( -1.899137,  2.642667, -0.215200 )    46.58906279
  WF centre and spread   10  (  1.707138,  2.941266,  0.137924 )    50.42153197
  WF centre and spread   11  ( -1.733929,  2.995759, -1.186798 )    49.11298714
  Sum of centres and spreads (  0.001932, 12.076603, -2.106418 )   481.22336507
 
    295    -0.892E-02     0.1520102250      481.2233531140      45.75  <-- CONV
        O_D=    428.5608023 O_OD=     32.0466961 O_TOT=    481.2233531 <-- SPRD
 Delta: O_D=  0.7698981E-02 O_OD= -0.1661916E-01 O_TOT= -0.8920178E-02 <-- DLTA
 ------------------------------------------------------------------------------
 Cycle:    296
  WF centre and spread    1  ( -0.580926, -0.983241,  0.280143 )    37.66340403
  WF centre and spread    2  (  0.792408, -1.001578, -0.372759 )    38.42422674
  WF centre and spread    3  (  0.576194, -0.979232, -0.222842 )    38.35218050
  WF centre and spread    4  ( -0.707688, -1.017613,  0.248590 )    38.65769092
  WF centre and spread    5  (  0.233191, -0.999620,  0.043077 )    38.57513143
  WF centre and spread    6  (  1.778214,  3.005960, -0.827194 )    49.75766308
  WF centre and spread    7  (  1.703414,  3.117222, -0.097245 )    50.78160402
  WF centre and spread    8  ( -1.866932,  2.353322,  0.106205 )    42.85894134
  WF centre and spread    9  ( -1.899141,  2.644347, -0.215327 )    46.60801468
  WF centre and spread   10  (  1.707226,  2.941181,  0.137888 )    50.42139012
  WF centre and spread   11  ( -1.734053,  2.995852, -1.162429 )    49.16924609
  Sum of centres and spreads (  0.001906, 12.076600, -2.081893 )   481.26949293
 
    296     0.461E-01     0.1122536263      481.2694809687      45.86  <-- CONV
        O_D=    428.6296830 O_OD=     32.0239433 O_TOT=    481.2694810 <-- SPRD
 Delta: O_D=  0.6888070E-01 O_OD= -0.2275285E-01 O_TOT=  0.4612785E-01 <-- DLTA
 ------------------------------------------------------------------------------
 Cycle:    297
  WF centre and spread    1  ( -0.584469, -0.983222,  0.280239 )    37.66270309
  WF centre and spread    2  (  0.796143, -1.001434, -0.373176 )    38.42919189
  WF centre and spread    3  (  0.579962, -0.979284, -0.222916 )    38.35141856
  WF centre and spread    4  ( -0.711427, -1.017479,  0.248937 )    38.65691141
  WF centre and spread    5  (  0.234026, -0.999650,  0.019482 )    38.57450156
  WF centre and spread    6  (  1.778245,  3.006015, -0.827157 )    49.75719175
  WF centre and spread    7  (  1.703525,  3.117136, -0.121555 )    50.77555051
  WF centre and spread    8  ( -1.868050,  2.351180,  0.105503 )    42.82933612
  WF centre and spread    9  ( -1.899194,  2.646306, -0.215375 )    46.63062628
  WF centre and spread   10  (  1.707327,  2.941072,  0.137848 )    50.42161580
  WF centre and spread   11  ( -1.734204,  2.995959, -1.162492 )    49.16805514
  Sum of centres and spreads (  0.001885, 12.076599, -2.130661 )   481.25710212
 
    297    -0.124E-01     0.1143466330      481.2570901499      45.97  <-- CONV
        O_D=    428.6273177 O_OD=     32.0139178 O_TOT=    481.2570901 <-- SPRD
 Delta: O_D= -0.2365372E-02 O_OD= -0.1002545E-01 O_TOT= -0.1239082E-01 <-- DLTA
 ------------------------------------------------------------------------------
 Cycle:    298
  WF centre and spread    1  ( -0.588327, -0.983202,  0.280323 )    37.66222901
  WF centre and spread    2  (  0.800209, -1.001278, -0.373578 )    38.43480461
  WF centre and spread    3  (  0.584057, -0.979330, -0.222976 )    38.35083944
  WF centre and spread    4  ( -0.715488, -1.017339,  0.249254 )    38.65629431
  WF centre and spread    5  (  0.235027, -0.999683,  0.020500 )    38.57016823
  WF centre and spread    6  (  1.778282,  3.006075, -0.851541 )    49.71586995
  WF centre and spread    7  (  1.703616,  3.117032, -0.121440 )    50.77553178
  WF centre and spread    8  ( -1.869307,  2.348856,  0.104685 )    42.79741662
  WF centre and spread    9  ( -1.899268,  2.648446, -0.215444 )    46.65564021
  WF centre and spread   10  (  1.707437,  2.940950,  0.137805 )    50.42209898
  WF centre and spread   11  ( -1.734373,  2.996072, -1.162559 )    49.16699259
  Sum of centres and spreads (  0.001865, 12.076599, -2.154973 )   481.20788572
 
    298    -0.492E-01     0.1723234299      481.2078737464      46.07  <-- CONV
        O_D=    428.5800574 O_OD=     32.0119617 O_TOT=    481.2078737 <-- SPRD
 Delta: O_D= -0.4726023E-01 O_OD= -0.1956174E-02 O_TOT= -0.4921640E-01 <-- DLTA
 ------------------------------------------------------------------------------
 Cycle:    299
  WF centre and spread    1  ( -0.591678, -0.983186,  0.280369 )    37.66182854
  WF centre and spread    2  (  0.803740, -1.001144, -0.373867 )    38.43962797
  WF centre and spread    3  (  0.587606, -0.979356, -0.223002 )    38.35040490
  WF centre and spread    4  ( -0.719002, -1.017227,  0.249458 )    38.65569352
  WF centre and spread    5  (  0.235991, -0.999719,  0.021355 )    38.56916315
  WF centre and spread    6  (  1.778312,  3.006126, -0.851507 )    49.71561064
  WF centre and spread    7  (  1.703682,  3.116943, -0.121346 )    50.77565295
  WF centre and spread    8  ( -1.870447,  2.346842,  0.103999 )    42.77073720
  WF centre and spread    9  ( -1.899359,  2.650307, -0.215496 )    46.67519401
  WF centre and spread   10  (  1.707530,  2.940843,  0.137766 )    50.42251495
  WF centre and spread   11  ( -1.734523,  2.996170, -1.162617 )    49.16599084
  Sum of centres and spreads (  0.001853, 12.076599, -2.154889 )   481.20241867
 
    299    -0.547E-02     0.1569411393      481.2024066946      46.18  <-- CONV
        O_D=    428.5748907 O_OD=     32.0116614 O_TOT=    481.2024067 <-- SPRD
 Delta: O_D= -0.5166754E-02 O_OD= -0.3002977E-03 O_TOT= -0.5467052E-02 <-- DLTA
 ------------------------------------------------------------------------------
 Cycle:    300
  WF centre and spread    1  ( -0.595128, -0.983171,  0.280386 )    37.66134635
  WF centre and spread    2  (  0.807376, -1.001010, -0.374092 )    38.44445049
  WF centre and spread    3  (  0.591255, -0.979367, -0.222999 )    38.34996126
  WF centre and spread    4  ( -0.722601, -1.017125,  0.249585 )    38.65504732
  WF centre and spread    5  (  0.237077, -0.999771,  0.022113 )    38.57071873
  WF centre and spread    6  (  1.778340,  3.006178, -0.851473 )    49.71542544
  WF centre and spread    7  (  1.703750,  3.116864, -0.121252 )    50.77573438
  WF centre and spread    8  ( -1.871677,  2.344767,  0.103367 )    42.74281472
  WF centre and spread    9  ( -1.899486,  2.652223, -0.215520 )    46.69407516
  WF centre and spread   10  (  1.707620,  2.940734,  0.137726 )    50.42298896
  WF centre and spread   11  ( -1.734681,  2.996274, -1.187103 )    49.10769747
  Sum of centres and spreads (  0.001846, 12.076596, -2.179261 )   481.14026027
 
    300    -0.622E-01     0.1403092877      481.1402482937      46.29  <-- CONV
        O_D=    428.5159389 O_OD=     32.0084547 O_TOT=    481.1402483 <-- SPRD
 Delta: O_D= -0.5895177E-01 O_OD= -0.3206628E-02 O_TOT= -0.6215840E-01 <-- DLTA
 ------------------------------------------------------------------------------

 Writing checkpoint file NbSe2.chk... done

 Final State
  WF centre and spread    1  ( -0.595128, -0.983171,  0.280386 )    37.66134635
  WF centre and spread    2  (  0.807376, -1.001010, -0.374092 )    38.44445049
  WF centre and spread    3  (  0.591255, -0.979367, -0.222999 )    38.34996126
  WF centre and spread    4  ( -0.722601, -1.017125,  0.249585 )    38.65504732
  WF centre and spread    5  (  0.237077, -0.999771,  0.022113 )    38.57071873
  WF centre and spread    6  (  1.778340,  3.006178, -0.851473 )    49.71542544
  WF centre and spread    7  (  1.703750,  3.116864, -0.121252 )    50.77573438
  WF centre and spread    8  ( -1.871677,  2.344767,  0.103367 )    42.74281472
  WF centre and spread    9  ( -1.899486,  2.652223, -0.215520 )    46.69407516
  WF centre and spread   10  (  1.707620,  2.940734,  0.137726 )    50.42298896
  WF centre and spread   11  ( -1.734681,  2.996274, -1.187103 )    49.10769747
  Sum of centres and spreads (  0.001846, 12.076596, -2.179261 )   481.14026027
 
         Spreads (Ang^2)       Omega I      =    20.615854629
        ================       Omega D      =   428.515938919
                               Omega OD     =    32.008454746
    Final Spread (Ang^2)       Omega Total  =   481.140248294
 ------------------------------------------------------------------------------

 Writing checkpoint file NbSe2.chk... done

 Time for wannierise           32.336 (sec)
 *---------------------------------------------------------------------------*
 |                               PLOTTING                                    |
 *---------------------------------------------------------------------------*
 
 
 Calculating interpolated band-structure
 
 Time to calculate interpolated band structure       2.220 (sec)
 
 Time for plotting              3.600 (sec)
 Total Execution Time          50.560 (sec)

 *===========================================================================*
 |                             TIMING INFORMATION                            |
 *===========================================================================*
 |    Tag                                                Ncalls      Time (s)|
 |---------------------------------------------------------------------------|
 |kmesh: get                                        :         2         0.968|
 |kmesh: write                                      :         1         0.020|
 |overlap: allocate                                 :         1         0.000|
 |dis: main                                         :         1        14.120|
 |wann: main                                        :         1        32.324|
 |plot: main                                        :         1         3.600|
 *---------------------------------------------------------------------------*
 
 All done: wannier90 exiting
